
    -----------------------------------------------------------------------
          Psi4: An Open-Source Ab Initio Electronic Structure Package
                               Psi4 1.2a1.dev194 

                         Git: Rev {master} 77af755 


    R. M. Parrish, L. A. Burns, D. G. A. Smith, A. C. Simmonett,
    A. E. DePrince III, E. G. Hohenstein, U. Bozkaya, A. Yu. Sokolov,
    R. Di Remigio, R. M. Richard, J. F. Gonthier, A. M. James,
    H. R. McAlexander, A. Kumar, M. Saitow, X. Wang, B. P. Pritchard,
    P. Verma, H. F. Schaefer III, K. Patkowski, R. A. King, E. F. Valeev,
    F. A. Evangelista, J. M. Turney, T. D. Crawford, and C. D. Sherrill,
    J. Chem. Theory Comput. in press (2017).
    (doi: 10.1021/acs.jctc.7b00174)

    -----------------------------------------------------------------------


    Psi4 started on: Monday, 13 November 2017 05:49PM

    Process ID:  14822
    PSIDATADIR: /groups/crawdad_lab/opt/software/dragonstooth_python3_psi4/share/psi4
    Memory:     500.0 MiB
    Threads:    24
    
  ==> Input File <==

--------------------------------------------------------------------------
memory 8 gb

molecule h2o2 {
 O     -0.028962160801    -0.694396279686    -0.049338350190
 O      0.028962160801     0.694396279686    -0.049338350190
 H      0.350498145881    -0.910645626300     0.783035421467
 H     -0.350498145881     0.910645626300     0.783035421467
noreorient
symmetry c1
}

set scf{
    e_convergence 1e-9
    d_convergence 1e-9

}
set {
  basis aug-cc-pvqz
  print 3
  r_convergence 1e-7
  omega [589,'nm']
  gauge both
  #diis 'false'
}

#properties('ccsd', properties=['rotation'])
energy('scf')
--------------------------------------------------------------------------

  Memory set to   7.451 GiB by Python driver.

*** tstart() called on dt046
*** at Mon Nov 13 17:49:40 2017

   => Loading Basis Set <=

    Name: AUG-CC-PVQZ
    Role: ORBITAL
    Keyword: BASIS
    atoms 1-2 entry O          line   400 file /groups/crawdad_lab/opt/software/dragonstooth_python3_psi4/share/psi4/basis/aug-cc-pvqz.gbs 
    atoms 3-4 entry H          line    35 file /groups/crawdad_lab/opt/software/dragonstooth_python3_psi4/share/psi4/basis/aug-cc-pvqz.gbs 

    There are an even number of electrons - assuming singlet.
    Specify the multiplicity in the molecule input block.


         ---------------------------------------------------------
                                   SCF
            by Justin Turney, Rob Parrish, Andy Simmonett
                             and Daniel Smith
                              RHF Reference
                       24 Threads,   7629 MiB Core
         ---------------------------------------------------------

  ==> Geometry <==

    Molecular point group: c1
    Full point group: C2

    Geometry (in Angstrom), charge = 0, multiplicity = 1:

       Center              X                  Y                   Z               Mass       
    ------------   -----------------  -----------------  -----------------  -----------------
           O         -0.028962160801    -0.694396279686    -0.049338350190    15.994914619560
           O          0.028962160801     0.694396279686    -0.049338350190    15.994914619560
           H          0.350498145881    -0.910645626300     0.783035421467     1.007825032070
           H         -0.350498145881     0.910645626300     0.783035421467     1.007825032070

           O
              BASIS           AUG-CC-PVQZ          53f49811779f84cc674d608400a015b77c46631a
           O
              BASIS           AUG-CC-PVQZ          53f49811779f84cc674d608400a015b77c46631a
           H
              BASIS           AUG-CC-PVQZ          5b060a772ca11be6a53e13acde0178d870caa905
           H
              BASIS           AUG-CC-PVQZ          5b060a772ca11be6a53e13acde0178d870caa905

  Running in c1 symmetry.

  Rotational constants: A =     10.61423  B =      0.97044  C =      0.91566 [cm^-1]
  Rotational constants: A = 318206.57462  B =  29093.19738  C =  27450.82444 [MHz]
  Nuclear repulsion =   38.253968380675488

  Charge       = 0
  Multiplicity = 1
  Electrons    = 18
  Nalpha       = 9
  Nbeta        = 9

  ==> Algorithm <==

  SCF Algorithm Type is DF.
  DIIS enabled.
  MOM disabled.
  Fractional occupation disabled.
  Guess Type is SAD.
  Energy threshold   = 1.00e-09
  Density threshold  = 1.00e-09
  Integral threshold = 0.00e+00

  ==> Primary Basis <==

  -AO BASIS SET INFORMATION:
    Name                   = AUG-CC-PVQZ
    Blend                  = AUG-CC-PVQZ
    Total number of shells = 68
    Number of primitives   = 108
    Number of AO           = 320
    Number of SO           = 252
    Maximum AM             = 4
    Spherical Harmonics    = TRUE

  -Contraction Scheme:
    Atom   Type   All Primitives // Shells:
   ------ ------ --------------------------
       1     O     22s 7p 4d 3f 2g // 6s 5p 4d 3f 2g 
       2     O     22s 7p 4d 3f 2g // 6s 5p 4d 3f 2g 
       3     H     7s 4p 3d 2f // 5s 4p 3d 2f 
       4     H     7s 4p 3d 2f // 5s 4p 3d 2f 

  ==> AO Basis Functions <==

    [ AUG-CC-PVQZ ]
    spherical
    ****
    O   1
    S   9 1.00
                     61420.00000000           0.00009000
                      9199.00000000           0.00069800
                      2091.00000000           0.00366400
                       590.90000000           0.01521800
                       192.30000000           0.05242300
                        69.32000000           0.14592100
                        26.97000000           0.30525800
                        11.10000000           0.39850800
                         4.68200000           0.21698000
    S   9 1.00
                     61420.00000000          -0.00002000
                      9199.00000000          -0.00015900
                      2091.00000000          -0.00082900
                       590.90000000          -0.00350800
                       192.30000000          -0.01215600
                        69.32000000          -0.03626100
                        26.97000000          -0.08299200
                        11.10000000          -0.15209000
                         4.68200000          -0.11533100
    S   1 1.00
                         1.42800000           1.00000000
    S   1 1.00
                         0.55470000           1.00000000
    S   1 1.00
                         0.20670000           1.00000000
    P   3 1.00
                        63.42000000           0.00604400
                        14.66000000           0.04179900
                         4.45900000           0.16114300
    P   1 1.00
                         1.53100000           1.00000000
    P   1 1.00
                         0.53020000           1.00000000
    P   1 1.00
                         0.17500000           1.00000000
    D   1 1.00
                         3.77500000           1.00000000
    D   1 1.00
                         1.30000000           1.00000000
    D   1 1.00
                         0.44400000           1.00000000
    F   1 1.00
                         2.66600000           1.00000000
    F   1 1.00
                         0.85900000           1.00000000
    G   1 1.00
                         1.84600000           1.00000000
    S   1 1.00
                         0.06959000           1.00000000
    P   1 1.00
                         0.05348000           1.00000000
    D   1 1.00
                         0.15400000           1.00000000
    F   1 1.00
                         0.32400000           1.00000000
    G   1 1.00
                         0.71400000           1.00000000
    ****
    O   2
    S   9 1.00
                     61420.00000000           0.00009000
                      9199.00000000           0.00069800
                      2091.00000000           0.00366400
                       590.90000000           0.01521800
                       192.30000000           0.05242300
                        69.32000000           0.14592100
                        26.97000000           0.30525800
                        11.10000000           0.39850800
                         4.68200000           0.21698000
    S   9 1.00
                     61420.00000000          -0.00002000
                      9199.00000000          -0.00015900
                      2091.00000000          -0.00082900
                       590.90000000          -0.00350800
                       192.30000000          -0.01215600
                        69.32000000          -0.03626100
                        26.97000000          -0.08299200
                        11.10000000          -0.15209000
                         4.68200000          -0.11533100
    S   1 1.00
                         1.42800000           1.00000000
    S   1 1.00
                         0.55470000           1.00000000
    S   1 1.00
                         0.20670000           1.00000000
    P   3 1.00
                        63.42000000           0.00604400
                        14.66000000           0.04179900
                         4.45900000           0.16114300
    P   1 1.00
                         1.53100000           1.00000000
    P   1 1.00
                         0.53020000           1.00000000
    P   1 1.00
                         0.17500000           1.00000000
    D   1 1.00
                         3.77500000           1.00000000
    D   1 1.00
                         1.30000000           1.00000000
    D   1 1.00
                         0.44400000           1.00000000
    F   1 1.00
                         2.66600000           1.00000000
    F   1 1.00
                         0.85900000           1.00000000
    G   1 1.00
                         1.84600000           1.00000000
    S   1 1.00
                         0.06959000           1.00000000
    P   1 1.00
                         0.05348000           1.00000000
    D   1 1.00
                         0.15400000           1.00000000
    F   1 1.00
                         0.32400000           1.00000000
    G   1 1.00
                         0.71400000           1.00000000
    ****
    H   3
    S   3 1.00
                        82.64000000           0.00200600
                        12.41000000           0.01534300
                         2.82400000           0.07557900
    S   1 1.00
                         0.79770000           1.00000000
    S   1 1.00
                         0.25810000           1.00000000
    S   1 1.00
                         0.08989000           1.00000000
    P   1 1.00
                         2.29200000           1.00000000
    P   1 1.00
                         0.83800000           1.00000000
    P   1 1.00
                         0.29200000           1.00000000
    D   1 1.00
                         2.06200000           1.00000000
    D   1 1.00
                         0.66200000           1.00000000
    F   1 1.00
                         1.39700000           1.00000000
    S   1 1.00
                         0.02363000           1.00000000
    P   1 1.00
                         0.08480000           1.00000000
    D   1 1.00
                         0.19000000           1.00000000
    F   1 1.00
                         0.36000000           1.00000000
    ****
    H   4
    S   3 1.00
                        82.64000000           0.00200600
                        12.41000000           0.01534300
                         2.82400000           0.07557900
    S   1 1.00
                         0.79770000           1.00000000
    S   1 1.00
                         0.25810000           1.00000000
    S   1 1.00
                         0.08989000           1.00000000
    P   1 1.00
                         2.29200000           1.00000000
    P   1 1.00
                         0.83800000           1.00000000
    P   1 1.00
                         0.29200000           1.00000000
    D   1 1.00
                         2.06200000           1.00000000
    D   1 1.00
                         0.66200000           1.00000000
    F   1 1.00
                         1.39700000           1.00000000
    S   1 1.00
                         0.02363000           1.00000000
    P   1 1.00
                         0.08480000           1.00000000
    D   1 1.00
                         0.19000000           1.00000000
    F   1 1.00
                         0.36000000           1.00000000
    ****

   => Loading Basis Set <=

    Name: (AUG-CC-PVQZ AUX)
    Role: JKFIT
    Keyword: DF_BASIS_SCF
    atoms 1-2 entry O          line   318 file /groups/crawdad_lab/opt/software/dragonstooth_python3_psi4/share/psi4/basis/aug-cc-pvqz-jkfit.gbs 
    atoms 3-4 entry H          line    70 file /groups/crawdad_lab/opt/software/dragonstooth_python3_psi4/share/psi4/basis/aug-cc-pvqz-jkfit.gbs 

  ==> Pre-Iterations <==

   -------------------------------------------------------
    Irrep   Nso     Nmo     Nalpha   Nbeta   Ndocc  Nsocc
   -------------------------------------------------------
     A        252     252       0       0       0       0
   -------------------------------------------------------
    Total     252     252       9       9       9       0
   -------------------------------------------------------

  ==> Integral Setup <==

  ==> DFJK: Density-Fitted J/K Matrices <==

    J tasked:                  Yes
    K tasked:                  Yes
    wK tasked:                  No
    OpenMP threads:             24
    Integrals threads:          24
    Memory (MB):              5722
    Algorithm:                Core
    Integral Cache:           NONE
    Schwarz Cutoff:          1E-12
    Fitting Condition:       1E-12

   => Auxiliary Basis Set <=

  -AO BASIS SET INFORMATION:
    Name                   = (AUG-CC-PVQZ AUX)
    Blend                  = AUG-CC-PVQZ-JKFIT
    Total number of shells = 104
    Number of primitives   = 104
    Number of AO           = 598
    Number of SO           = 436
    Maximum AM             = 5
    Spherical Harmonics    = TRUE

  -Contraction Scheme:
    Atom   Type   All Primitives // Shells:
   ------ ------ --------------------------
       1     O     11s 8p 6d 4f 3g 2h // 11s 8p 6d 4f 3g 2h 
       2     O     11s 8p 6d 4f 3g 2h // 11s 8p 6d 4f 3g 2h 
       3     H     5s 4p 4d 3f 2g // 5s 4p 4d 3f 2g 
       4     H     5s 4p 4d 3f 2g // 5s 4p 4d 3f 2g 

  ==> AO Basis Functions <==

    [ (AUG-CC-PVQZ AUX) ]
    spherical
    ****
    O   1
    S   1 1.00
                      1517.86675060           1.00000000
    S   1 1.00
                       489.67952008           1.00000000
    S   1 1.00
                       176.72118665           1.00000000
    S   1 1.00
                        63.79223314           1.00000000
    S   1 1.00
                        25.36649913           1.00000000
    S   1 1.00
                         9.91354912           1.00000000
    S   1 1.00
                         4.46453066           1.00000000
    S   1 1.00
                         1.80177437           1.00000000
    S   1 1.00
                         0.80789711           1.00000000
    S   1 1.00
                         0.33864327           1.00000000
    P   1 1.00
                       120.16030921           1.00000000
    P   1 1.00
                        34.40962247           1.00000000
    P   1 1.00
                        12.58114861           1.00000000
    P   1 1.00
                         5.06638242           1.00000000
    P   1 1.00
                         2.03469271           1.00000000
    P   1 1.00
                         0.86092967           1.00000000
    P   1 1.00
                         0.36681357           1.00000000
    D   1 1.00
                        19.04306281           1.00000000
    D   1 1.00
                         5.80603811           1.00000000
    D   1 1.00
                         2.18918416           1.00000000
    D   1 1.00
                         0.87794614           1.00000000
    D   1 1.00
                         0.35623647           1.00000000
    F   1 1.00
                         3.96585000           1.00000000
    F   1 1.00
                         1.49085000           1.00000000
    F   1 1.00
                         0.63485000           1.00000000
    G   1 1.00
                         2.85685000           1.00000000
    G   1 1.00
                         1.04985000           1.00000000
    H   1 1.00
                         2.03685000           1.00000000
    S   1 1.00
                         0.14194786           1.00000000
    P   1 1.00
                         0.15628709           1.00000000
    D   1 1.00
                         0.14454693           1.00000000
    F   1 1.00
                         0.27033875           1.00000000
    G   1 1.00
                         0.38580430           1.00000000
    H   1 1.00
                         0.81474000           1.00000000
    ****
    O   2
    S   1 1.00
                      1517.86675060           1.00000000
    S   1 1.00
                       489.67952008           1.00000000
    S   1 1.00
                       176.72118665           1.00000000
    S   1 1.00
                        63.79223314           1.00000000
    S   1 1.00
                        25.36649913           1.00000000
    S   1 1.00
                         9.91354912           1.00000000
    S   1 1.00
                         4.46453066           1.00000000
    S   1 1.00
                         1.80177437           1.00000000
    S   1 1.00
                         0.80789711           1.00000000
    S   1 1.00
                         0.33864327           1.00000000
    P   1 1.00
                       120.16030921           1.00000000
    P   1 1.00
                        34.40962247           1.00000000
    P   1 1.00
                        12.58114861           1.00000000
    P   1 1.00
                         5.06638242           1.00000000
    P   1 1.00
                         2.03469271           1.00000000
    P   1 1.00
                         0.86092967           1.00000000
    P   1 1.00
                         0.36681357           1.00000000
    D   1 1.00
                        19.04306281           1.00000000
    D   1 1.00
                         5.80603811           1.00000000
    D   1 1.00
                         2.18918416           1.00000000
    D   1 1.00
                         0.87794614           1.00000000
    D   1 1.00
                         0.35623647           1.00000000
    F   1 1.00
                         3.96585000           1.00000000
    F   1 1.00
                         1.49085000           1.00000000
    F   1 1.00
                         0.63485000           1.00000000
    G   1 1.00
                         2.85685000           1.00000000
    G   1 1.00
                         1.04985000           1.00000000
    H   1 1.00
                         2.03685000           1.00000000
    S   1 1.00
                         0.14194786           1.00000000
    P   1 1.00
                         0.15628709           1.00000000
    D   1 1.00
                         0.14454693           1.00000000
    F   1 1.00
                         0.27033875           1.00000000
    G   1 1.00
                         0.38580430           1.00000000
    H   1 1.00
                         0.81474000           1.00000000
    ****
    H   3
    S   1 1.00
                         9.53024933           1.00000000
    S   1 1.00
                         1.91745062           1.00000000
    S   1 1.00
                         0.68424049           1.00000000
    S   1 1.00
                         0.28413256           1.00000000
    P   1 1.00
                         2.91332320           1.00000000
    P   1 1.00
                         1.26212054           1.00000000
    P   1 1.00
                         0.50199776           1.00000000
    D   1 1.00
                         2.88320839           1.00000000
    D   1 1.00
                         1.28017017           1.00000000
    D   1 1.00
                         0.52511318           1.00000000
    F   1 1.00
                         2.74894484           1.00000000
    F   1 1.00
                         1.19008855           1.00000000
    G   1 1.00
                         1.47526627           1.00000000
    S   1 1.00
                         0.11798675           1.00000000
    P   1 1.00
                         0.19966536           1.00000000
    D   1 1.00
                         0.21539625           1.00000000
    F   1 1.00
                         0.51521978           1.00000000
    G   1 1.00
                         0.59010651           1.00000000
    ****
    H   4
    S   1 1.00
                         9.53024933           1.00000000
    S   1 1.00
                         1.91745062           1.00000000
    S   1 1.00
                         0.68424049           1.00000000
    S   1 1.00
                         0.28413256           1.00000000
    P   1 1.00
                         2.91332320           1.00000000
    P   1 1.00
                         1.26212054           1.00000000
    P   1 1.00
                         0.50199776           1.00000000
    D   1 1.00
                         2.88320839           1.00000000
    D   1 1.00
                         1.28017017           1.00000000
    D   1 1.00
                         0.52511318           1.00000000
    F   1 1.00
                         2.74894484           1.00000000
    F   1 1.00
                         1.19008855           1.00000000
    G   1 1.00
                         1.47526627           1.00000000
    S   1 1.00
                         0.11798675           1.00000000
    P   1 1.00
                         0.19966536           1.00000000
    D   1 1.00
                         0.21539625           1.00000000
    F   1 1.00
                         0.51521978           1.00000000
    G   1 1.00
                         0.59010651           1.00000000
    ****

  Minimum eigenvalue in the overlap matrix is 5.6344752753E-05.
  Using Symmetric Orthogonalization.

  SCF Guess: Superposition of Atomic Densities via on-the-fly atomic UHF.

DIIS coefficients:  1.000 
DIIS coefficients:  0.123  0.877 
DIIS coefficients:  -0.052  0.397  0.654 
DIIS coefficients:  0.028  0.058  -0.605  1.520 
DIIS coefficients:  -0.003  -0.001  0.103  -0.306  1.206 
DIIS coefficients:  -0.000  -0.001  -0.009  0.047  -0.223  1.187 
DIIS coefficients:  1.445  -0.000  0.003  -0.012  0.077  -0.512 
DIIS coefficients:  -1.162  1.861  -0.001  0.007  -0.046  0.341 
DIIS coefficients:  0.122  -0.392  1.292  -0.000  0.002  -0.023 
DIIS coefficients:  1.000 
DIIS coefficients:  0.560  0.440 
  ==> Iterations <==

                           Total Energy        Delta E     RMS |[F,P]|

   @DF-RHF iter   0:  -151.00689349313802   -1.51007e+02   1.06276e-02 
    Occupation by irrep:
              A 
    DOCC [     9 ]

   @DF-RHF iter   1:  -150.79976818181697    2.07125e-01   1.56681e-03 
DIIS coefficients:  0.169  0.831 
    Occupation by irrep:
              A 
    DOCC [     9 ]

   @DF-RHF iter   2:  -150.84090774516096   -4.11396e-02   5.56419e-04 DIIS
DIIS coefficients:  -0.042  0.095  0.947 
    Occupation by irrep:
              A 
    DOCC [     9 ]

   @DF-RHF iter   3:  -150.84525919936627   -4.35145e-03   1.81115e-04 DIIS
DIIS coefficients:  -0.022  -0.086  0.037  1.070 
    Occupation by irrep:
              A 
    DOCC [     9 ]

   @DF-RHF iter   4:  -150.84606388195473   -8.04683e-04   7.00563e-05 DIIS
DIIS coefficients:  0.002  -0.012  -0.078  0.038  1.049 
    Occupation by irrep:
              A 
    DOCC [     9 ]

   @DF-RHF iter   5:  -150.84621377345860   -1.49892e-04   2.25514e-05 DIIS
DIIS coefficients:  0.004  0.006  -0.031  -0.126  0.325  0.822 
    Occupation by irrep:
              A 
    DOCC [     9 ]

   @DF-RHF iter   6:  -150.84623018273643   -1.64093e-05   1.08320e-05 DIIS
DIIS coefficients:  -0.001  -0.001  0.013  0.025  -0.179  -0.138  1.281 
    Occupation by irrep:
              A 
    DOCC [     9 ]

   @DF-RHF iter   7:  -150.84623251524727   -2.33251e-06   2.34880e-06 DIIS
DIIS coefficients:  0.000  0.000  -0.003  -0.001  0.052  -0.001  -0.537  1.490 
    Occupation by irrep:
              A 
    DOCC [     9 ]

   @DF-RHF iter   8:  -150.84623280948594   -2.94239e-07   7.36768e-07 DIIS
DIIS coefficients:  0.000  -0.000  0.000  -0.001  -0.002  0.008  0.042  -0.385  1.338 
    Occupation by irrep:
              A 
    DOCC [     9 ]

   @DF-RHF iter   9:  -150.84623283973744   -3.02515e-08   1.73573e-07 DIIS
DIIS coefficients:  -0.000  -0.000  0.000  0.000  -0.003  -0.003  0.024  0.016  -0.370  1.335 
    Occupation by irrep:
              A 
    DOCC [     9 ]

   @DF-RHF iter  10:  -150.84623284156120   -1.82376e-09   4.82174e-08 DIIS
DIIS coefficients:  1.399  0.000  -0.000  0.000  0.001  -0.000  -0.008  0.020  0.017  -0.430 
    Occupation by irrep:
              A 
    DOCC [     9 ]

   @DF-RHF iter  11:  -150.84623284165409   -9.28821e-11   1.46674e-08 DIIS
DIIS coefficients:  -0.408  1.362  0.000  -0.000  -0.000  0.000  0.001  -0.006  0.018  0.033 
    Occupation by irrep:
              A 
    DOCC [     9 ]

   @DF-RHF iter  12:  -150.84623284166310   -9.00968e-12   4.15945e-09 DIIS
DIIS coefficients:  -0.015  -0.291  1.292  0.000  0.000  -0.000  -0.000  0.001  -0.008  0.021 
    Occupation by irrep:
              A 
    DOCC [     9 ]

   @DF-RHF iter  13:  -150.84623284166429   -1.19371e-12   1.37565e-09 DIIS
DIIS coefficients:  0.050  -0.068  -0.511  1.533  -0.000  -0.000  0.000  0.000  0.000  -0.005 
    Occupation by irrep:
              A 
    DOCC [     9 ]

   @DF-RHF iter  14:  -150.84623284166437   -8.52651e-14   5.97119e-10 DIIS

  ==> Post-Iterations <==

    Orbital Energies (a.u.)
    -----------------------

    Doubly Occupied:                                                      

       1A    -20.626590     2A    -20.626248     3A     -1.514174  
       4A     -1.214304     5A     -0.781408     6A     -0.679261  
       7A     -0.623156     8A     -0.544264     9A     -0.467788  

    Virtual:                                                              

      10A      0.025020    11A      0.039258    12A      0.103334  
      13A      0.104390    14A      0.141950    15A      0.150013  
      16A      0.150743    17A      0.158637    18A      0.168890  
      19A      0.186175    20A      0.208450    21A      0.259370  
      22A      0.260343    23A      0.276959    24A      0.294311  
      25A      0.298148    26A      0.338873    27A      0.349970  
      28A      0.396216    29A      0.478217    30A      0.497842  
      31A      0.521571    32A      0.556649    33A      0.561202  
      34A      0.562895    35A      0.581251    36A      0.595487  
      37A      0.610188    38A      0.625120    39A      0.636810  
      40A      0.657177    41A      0.690715    42A      0.692194  
      43A      0.728913    44A      0.729951    45A      0.768438  
      46A      0.781998    47A      0.791148    48A      0.794427  
      49A      0.801786    50A      0.837133    51A      0.856021  
      52A      0.893511    53A      0.989307    54A      1.018120  
      55A      1.065805    56A      1.077211    57A      1.107582  
      58A      1.146965    59A      1.197234    60A      1.271697  
      61A      1.293092    62A      1.390813    63A      1.451633  
      64A      1.470060    65A      1.481687    66A      1.509832  
      67A      1.516279    68A      1.551197    69A      1.553558  
      70A      1.596343    71A      1.607068    72A      1.639218  
      73A      1.659545    74A      1.665903    75A      1.671526  
      76A      1.708683    77A      1.725624    78A      1.738481  
      79A      1.761075    80A      1.771770    81A      1.781856  
      82A      1.821303    83A      1.822763    84A      1.892033  
      85A      1.903448    86A      1.925048    87A      1.953660  
      88A      1.986398    89A      1.993757    90A      2.021315  
      91A      2.062545    92A      2.071750    93A      2.171409  
      94A      2.175766    95A      2.231255    96A      2.253658  
      97A      2.272158    98A      2.337811    99A      2.353204  
     100A      2.385220   101A      2.412340   102A      2.442512  
     103A      2.669041   104A      2.678814   105A      2.797361  
     106A      2.851170   107A      2.918664   108A      3.003798  
     109A      3.014318   110A      3.030763   111A      3.118765  
     112A      3.125503   113A      3.218942   114A      3.276084  
     115A      3.299420   116A      3.348856   117A      3.484197  
     118A      3.586161   119A      3.636624   120A      3.716434  
     121A      3.739907   122A      3.765339   123A      3.810565  
     124A      3.870249   125A      3.923826   126A      3.998592  
     127A      4.000634   128A      4.005085   129A      4.061470  
     130A      4.133910   131A      4.136015   132A      4.183129  
     133A      4.193327   134A      4.227919   135A      4.236108  
     136A      4.300409   137A      4.330053   138A      4.366159  
     139A      4.389425   140A      4.455802   141A      4.473185  
     142A      4.516470   143A      4.605331   144A      4.609005  
     145A      4.666498   146A      4.736823   147A      4.773850  
     148A      4.839862   149A      4.925566   150A      4.935899  
     151A      5.060662   152A      5.110587   153A      5.162906  
     154A      5.238950   155A      5.250479   156A      5.387392  
     157A      5.400940   158A      5.432046   159A      5.472684  
     160A      5.540572   161A      5.669178   162A      5.702060  
     163A      5.814320   164A      5.868489   165A      6.039555  
     166A      6.122481   167A      6.355408   168A      6.424637  
     169A      6.527625   170A      6.908137   171A      6.952955  
     172A      7.003388   173A      7.059343   174A      7.327856  
     175A      7.793951   176A      7.821731   177A      7.866822  
     178A      7.928875   179A      7.973751   180A      7.977351  
     181A      7.987260   182A      8.179565   183A      8.285737  
     184A      8.382589   185A      8.588138   186A      8.660828  
     187A      8.725484   188A      8.744917   189A      8.821830  
     190A      8.895345   191A      8.981492   192A      9.048112  
     193A      9.312431   194A      9.371040   195A      9.959410  
     196A      9.988964   197A     10.039168   198A     10.078497  
     199A     10.095533   200A     10.199294   201A     10.536630  
     202A     10.562522   203A     10.691517   204A     10.747797  
     205A     10.772025   206A     11.015076   207A     11.038057  
     208A     11.064831   209A     11.069355   210A     11.144222  
     211A     11.203208   212A     11.231601   213A     11.364161  
     214A     11.422151   215A     11.455230   216A     11.593041  
     217A     11.640820   218A     11.715809   219A     11.740162  
     220A     11.928483   221A     11.954597   222A     12.007909  
     223A     12.031136   224A     12.215382   225A     12.229609  
     226A     12.272055   227A     12.391939   228A     12.403106  
     229A     12.534699   230A     12.561302   231A     12.676047  
     232A     12.862654   233A     12.934068   234A     13.009042  
     235A     13.036331   236A     13.068721   237A     13.245439  
     238A     13.310208   239A     13.909860   240A     14.030806  
     241A     14.348821   242A     14.480617   243A     14.734876  
     244A     14.790008   245A     14.811073   246A     14.895590  
     247A     14.987676   248A     15.886685   249A     17.241625  
     250A     17.256720   251A     44.150810   252A     46.179965  

    Final Occupation by Irrep:
              A 
    DOCC [     9 ]

  Energy converged.

  @DF-RHF Final Energy:  -150.84623284166437

   => Energetics <=

    Nuclear Repulsion Energy =             38.2539683806754880
    One-Electron Energy =                -284.0460158085834337
    Two-Electron Energy =                  94.9458145862435856
    Total Energy =                       -150.8462328416643743



Properties will be evaluated at   0.000000,   0.000000,   0.000000 Bohr

Properties computed using the SCF density matrix

  Nuclear Dipole Moment: (a.u.)
     X:    -0.0000      Y:     0.0000      Z:     1.4677

  Electronic Dipole Moment: (a.u.)
     X:     0.0000      Y:     0.0000      Z:    -0.3092

  Dipole Moment: (a.u.)
     X:     0.0000      Y:     0.0000      Z:     1.1584     Total:     1.1584

  Dipole Moment: (Debye)
     X:     0.0000      Y:     0.0000      Z:     2.9445     Total:     2.9445


*** tstop() called on dt046 at Mon Nov 13 17:49:47 2017
Module time:
	user time   =     100.04 seconds =       1.67 minutes
	system time =       2.62 seconds =       0.04 minutes
	total time  =          7 seconds =       0.12 minutes
Total time:
	user time   =     100.04 seconds =       1.67 minutes
	system time =       2.62 seconds =       0.04 minutes
	total time  =          7 seconds =       0.12 minutes

*** Psi4 exiting successfully. Buy a developer a beer!
