
    -----------------------------------------------------------------------
          Psi4: An Open-Source Ab Initio Electronic Structure Package
                               Psi4 1.2a1.dev194 

                         Git: Rev {master} 77af755 


    R. M. Parrish, L. A. Burns, D. G. A. Smith, A. C. Simmonett,
    A. E. DePrince III, E. G. Hohenstein, U. Bozkaya, A. Yu. Sokolov,
    R. Di Remigio, R. M. Richard, J. F. Gonthier, A. M. James,
    H. R. McAlexander, A. Kumar, M. Saitow, X. Wang, B. P. Pritchard,
    P. Verma, H. F. Schaefer III, K. Patkowski, R. A. King, E. F. Valeev,
    F. A. Evangelista, J. M. Turney, T. D. Crawford, and C. D. Sherrill,
    J. Chem. Theory Comput. in press (2017).
    (doi: 10.1021/acs.jctc.7b00174)

    -----------------------------------------------------------------------


    Psi4 started on: Monday, 13 November 2017 05:52PM

    Process ID:  15679
    PSIDATADIR: /groups/crawdad_lab/opt/software/dragonstooth_python3_psi4/share/psi4
    Memory:     500.0 MiB
    Threads:    24
    
  ==> Input File <==

--------------------------------------------------------------------------
memory 8 gb

molecule h2o2 {
 O     -0.028962160801    -0.694396279686    -0.049338350190
 O      0.028962160801     0.694396279686    -0.049338350190
 H      0.350498145881    -0.910645626300     0.783035421467
 H     -0.350498145881     0.910645626300     0.783035421467
noreorient
symmetry c1
}

set scf{
    e_convergence 1e-9
    d_convergence 1e-9

}
set {
  basis aug-cc-pvqz
  #print 3
  r_convergence 1e-7
  omega [589,'nm']
  gauge velocity
  #diis 'false'
}

properties('ccsd', properties=['rotation'])
#energy('scf')
--------------------------------------------------------------------------

  Memory set to   7.451 GiB by Python driver.

*** tstart() called on dt046
*** at Mon Nov 13 17:52:28 2017

   => Loading Basis Set <=

    Name: AUG-CC-PVQZ
    Role: ORBITAL
    Keyword: BASIS
    atoms 1-2 entry O          line   400 file /groups/crawdad_lab/opt/software/dragonstooth_python3_psi4/share/psi4/basis/aug-cc-pvqz.gbs 
    atoms 3-4 entry H          line    35 file /groups/crawdad_lab/opt/software/dragonstooth_python3_psi4/share/psi4/basis/aug-cc-pvqz.gbs 

    There are an even number of electrons - assuming singlet.
    Specify the multiplicity in the molecule input block.


         ---------------------------------------------------------
                                   SCF
            by Justin Turney, Rob Parrish, Andy Simmonett
                             and Daniel Smith
                              RHF Reference
                       24 Threads,   7629 MiB Core
         ---------------------------------------------------------

  ==> Geometry <==

    Molecular point group: c1
    Full point group: C2

    Geometry (in Angstrom), charge = 0, multiplicity = 1:

       Center              X                  Y                   Z               Mass       
    ------------   -----------------  -----------------  -----------------  -----------------
           O         -0.028962160801    -0.694396279686    -0.049338350190    15.994914619560
           O          0.028962160801     0.694396279686    -0.049338350190    15.994914619560
           H          0.350498145881    -0.910645626300     0.783035421467     1.007825032070
           H         -0.350498145881     0.910645626300     0.783035421467     1.007825032070

  Running in c1 symmetry.

  Rotational constants: A =     10.61423  B =      0.97044  C =      0.91566 [cm^-1]
  Rotational constants: A = 318206.57462  B =  29093.19738  C =  27450.82444 [MHz]
  Nuclear repulsion =   38.253968380675488

  Charge       = 0
  Multiplicity = 1
  Electrons    = 18
  Nalpha       = 9
  Nbeta        = 9

  ==> Algorithm <==

  SCF Algorithm Type is PK.
  DIIS enabled.
  MOM disabled.
  Fractional occupation disabled.
  Guess Type is SAD.
  Energy threshold   = 1.00e-09
  Density threshold  = 1.00e-09
  Integral threshold = 0.00e+00

  ==> Primary Basis <==

  Basis Set: AUG-CC-PVQZ
    Blend: AUG-CC-PVQZ
    Number of shells: 68
    Number of basis function: 252
    Number of Cartesian functions: 320
    Spherical Harmonics?: true
    Max angular momentum: 4

  ==> Pre-Iterations <==

   -------------------------------------------------------
    Irrep   Nso     Nmo     Nalpha   Nbeta   Ndocc  Nsocc
   -------------------------------------------------------
     A        252     252       0       0       0       0
   -------------------------------------------------------
    Total     252     252       9       9       9       0
   -------------------------------------------------------

  ==> Integral Setup <==

  Using integral reordering PK algorithm.
  Sizing the integral batches needed.
  Building batch lookup table.
   Calculation information:
      Number of atoms:                   4
      Number of AO shells:              68
      Number of primitives:            108
      Number of atomic orbitals:       320
      Number of basis functions:       252

      Integral cutoff                 1.00e-12
      Number of threads:                24

	Batch   1 pq = [       0,   31878] index = [             0,508119381] size =    508119381
  Task number: 73
  Buffer size: 7031250
  Buffer per thread: 2
  We computed 8730722 shell quartets total.
  Whereas there are 2753031 unique shell quartets.
   217.13 percent of shell quartets recomputed by reordering.
  ==> DiskJK: Disk-Based J/K Matrices <==

    J tasked:                  Yes
    K tasked:                  Yes
    wK tasked:                  No
    Memory (MB):              5722
    Schwarz Cutoff:          1E-12

    OpenMP threads:             24
  Minimum eigenvalue in the overlap matrix is 5.6344752753E-05.
  Using Symmetric Orthogonalization.

  SCF Guess: Superposition of Atomic Densities via on-the-fly atomic UHF.

  ==> Iterations <==

                        Total Energy        Delta E     RMS |[F,P]|

   @RHF iter   0:  -151.00689771587477   -1.51007e+02   1.42404e-02 
   @RHF iter   1:  -150.79977199501042    2.07126e-01   2.02689e-03 
   @RHF iter   2:  -150.84091175265635   -4.11398e-02   6.72507e-04 DIIS
   @RHF iter   3:  -150.84526326658448   -4.35151e-03   2.04204e-04 DIIS
   @RHF iter   4:  -150.84606795040440   -8.04684e-04   7.44184e-05 DIIS
   @RHF iter   5:  -150.84621784248881   -1.49892e-04   2.42394e-05 DIIS
   @RHF iter   6:  -150.84623425059743   -1.64081e-05   9.83746e-06 DIIS
   @RHF iter   7:  -150.84623658303681   -2.33244e-06   2.53258e-06 DIIS
   @RHF iter   8:  -150.84623687725002   -2.94213e-07   7.62996e-07 DIIS
   @RHF iter   9:  -150.84623690749390   -3.02439e-08   1.86591e-07 DIIS
   @RHF iter  10:  -150.84623690931681   -1.82291e-09   4.53469e-08 DIIS
   @RHF iter  11:  -150.84623690940961   -9.27969e-11   1.44334e-08 DIIS
   @RHF iter  12:  -150.84623690941930   -9.69180e-12   3.74086e-09 DIIS
   @RHF iter  13:  -150.84623690941970   -3.97904e-13   1.31988e-09 DIIS
   @RHF iter  14:  -150.84623690941999   -2.84217e-13   5.35889e-10 DIIS

  ==> Post-Iterations <==

    Orbital Energies (a.u.)
    -----------------------

    Doubly Occupied:                                                      

       1A    -20.626587     2A    -20.626246     3A     -1.514172  
       4A     -1.214303     5A     -0.781407     6A     -0.679262  
       7A     -0.623156     8A     -0.544263     9A     -0.467787  

    Virtual:                                                              

      10A      0.025025    11A      0.039266    12A      0.103345  
      13A      0.104398    14A      0.141954    15A      0.150024  
      16A      0.150755    17A      0.158650    18A      0.168893  
      19A      0.186178    20A      0.208448    21A      0.259370  
      22A      0.260342    23A      0.276961    24A      0.294313  
      25A      0.298144    26A      0.338874    27A      0.349969  
      28A      0.396213    29A      0.478210    30A      0.497838  
      31A      0.521559    32A      0.556634    33A      0.561196  
      34A      0.562888    35A      0.581248    36A      0.595481  
      37A      0.610176    38A      0.625112    39A      0.636793  
      40A      0.657164    41A      0.690703    42A      0.692190  
      43A      0.728895    44A      0.729948    45A      0.768417  
      46A      0.781990    47A      0.791126    48A      0.794426  
      49A      0.801758    50A      0.837115    51A      0.855990  
      52A      0.893491    53A      0.989284    54A      1.018106  
      55A      1.065767    56A      1.077189    57A      1.107557  
      58A      1.146934    59A      1.197198    60A      1.271677  
      61A      1.293059    62A      1.390764    63A      1.451571  
      64A      1.469971    65A      1.481622    66A      1.509799  
      67A      1.516227    68A      1.551126    69A      1.553492  
      70A      1.596284    71A      1.606993    72A      1.639153  
      73A      1.659428    74A      1.665829    75A      1.671450  
      76A      1.708613    77A      1.725544    78A      1.738401  
      79A      1.760963    80A      1.771687    81A      1.781774  
      82A      1.821167    83A      1.822682    84A      1.891876  
      85A      1.903347    86A      1.924938    87A      1.953552  
      88A      1.986290    89A      1.993689    90A      2.021236  
      91A      2.062459    92A      2.071682    93A      2.171307  
      94A      2.175663    95A      2.231137    96A      2.253543  
      97A      2.272040    98A      2.337679    99A      2.353099  
     100A      2.385103   101A      2.412264   102A      2.442430  
     103A      2.668907   104A      2.678696   105A      2.797249  
     106A      2.851079   107A      2.918553   108A      3.003650  
     109A      3.014195   110A      3.030600   111A      3.118654  
     112A      3.125413   113A      3.218768   114A      3.275991  
     115A      3.299294   116A      3.348714   117A      3.484006  
     118A      3.585984   119A      3.636355   120A      3.716125  
     121A      3.739500   122A      3.765011   123A      3.810066  
     124A      3.869892   125A      3.923434   126A      3.998130  
     127A      4.000275   128A      4.004577   129A      4.060995  
     130A      4.133392   131A      4.135500   132A      4.182612  
     133A      4.192759   134A      4.227444   135A      4.235755  
     136A      4.299824   137A      4.329449   138A      4.365693  
     139A      4.388900   140A      4.455240   141A      4.472801  
     142A      4.516034   143A      4.604879   144A      4.608526  
     145A      4.666050   146A      4.736300   147A      4.773352  
     148A      4.839370   149A      4.925094   150A      4.935434  
     151A      5.060037   152A      5.110029   153A      5.162108  
     154A      5.238488   155A      5.249880   156A      5.386909  
     157A      5.400414   158A      5.431549   159A      5.472068  
     160A      5.539991   161A      5.668628   162A      5.701484  
     163A      5.813738   164A      5.867931   165A      6.039118  
     166A      6.121848   167A      6.354835   168A      6.423855  
     169A      6.526799   170A      6.907587   171A      6.952420  
     172A      7.002793   173A      7.058785   174A      7.327283  
     175A      7.793519   176A      7.821461   177A      7.865979  
     178A      7.928430   179A      7.973280   180A      7.976823  
     181A      7.986473   182A      8.178593   183A      8.284923  
     184A      8.382124   185A      8.587735   186A      8.660491  
     187A      8.725122   188A      8.744229   189A      8.821208  
     190A      8.894930   191A      8.980961   192A      9.047570  
     193A      9.311764   194A      9.370507   195A      9.957903  
     196A      9.987701   197A     10.037723   198A     10.077181  
     199A     10.094118   200A     10.197868   201A     10.532941  
     202A     10.559225   203A     10.690212   204A     10.745988  
     205A     10.768356   206A     11.012383   207A     11.035004  
     208A     11.061510   209A     11.065776   210A     11.140579  
     211A     11.201130   212A     11.228360   213A     11.361360  
     214A     11.418911   215A     11.451551   216A     11.589681  
     217A     11.637866   218A     11.712212   219A     11.736599  
     220A     11.924901   221A     11.950401   222A     12.003372  
     223A     12.027705   224A     12.210612   225A     12.224052  
     226A     12.269150   227A     12.387753   228A     12.398249  
     229A     12.529490   230A     12.556805   231A     12.671471  
     232A     12.857511   233A     12.928710   234A     13.003996  
     235A     13.030418   236A     13.062984   237A     13.240347  
     238A     13.304174   239A     13.903603   240A     14.025125  
     241A     14.343476   242A     14.475420   243A     14.730619  
     244A     14.784262   245A     14.805346   246A     14.890635  
     247A     14.982429   248A     15.881013   249A     17.236924  
     250A     17.252053   251A     44.150526   252A     46.179549  

    Final Occupation by Irrep:
              A 
    DOCC [     9 ]

  Energy converged.

  @RHF Final Energy:  -150.84623690941999

   => Energetics <=

    Nuclear Repulsion Energy =             38.2539683806754880
    One-Electron Energy =                -284.0460437742731870
    Two-Electron Energy =                  94.9458384841777274
    Total Energy =                       -150.8462369094199857



Properties will be evaluated at   0.000000,   0.000000,   0.000000 Bohr

Properties computed using the SCF density matrix

  Nuclear Dipole Moment: (a.u.)
     X:    -0.0000      Y:     0.0000      Z:     1.4677

  Electronic Dipole Moment: (a.u.)
     X:     0.0000      Y:     0.0000      Z:    -0.3092

  Dipole Moment: (a.u.)
     X:     0.0000      Y:     0.0000      Z:     1.1584     Total:     1.1584

  Dipole Moment: (Debye)
     X:     0.0000      Y:     0.0000      Z:     2.9444     Total:     2.9444


*** tstop() called on dt046 at Mon Nov 13 17:55:07 2017
Module time:
	user time   =     396.53 seconds =       6.61 minutes
	system time =      79.29 seconds =       1.32 minutes
	total time  =        159 seconds =       2.65 minutes
Total time:
	user time   =     396.53 seconds =       6.61 minutes
	system time =      79.29 seconds =       1.32 minutes
	total time  =        159 seconds =       2.65 minutes
 MINTS: Wrapper to libmints.
   by Justin Turney

   Calculation information:
      Number of threads:                24
      Number of atoms:                   4
      Number of AO shells:              68
      Number of SO shells:              68
      Number of primitives:            108
      Number of atomic orbitals:       320
      Number of basis functions:       252

      Number of irreps:                  1
      Integral cutoff                 0.00e+00
      Number of functions per irrep: [ 252 ]

 OEINTS: Overlap, kinetic, potential, dipole, and quadrupole integrals
         stored in file 35.

      Computing two-electron integrals...done
      Computed 502271814 non-zero two-electron integrals.
        Stored in file 33.


*** tstart() called on dt046
*** at Mon Nov 13 17:55:51 2017


	Wfn Parameters:
	--------------------
	Wavefunction         = CCSD
	Number of irreps     = 1
	Number of MOs        = 252
	Number of active MOs = 252
	AO-Basis             = NONE
	Semicanonical        = false
	Reference            = RHF
	Print Level          = 1

	IRREP	# MOs	# FZDC	# DOCC	# SOCC	# VIRT	# FZVR
	-----	-----	------	------	------	------	------
	 A	   252	    0	    9	    0	    243	    0
	Transforming integrals...
	IWL integrals will be deleted.
	(OO|OO)...
	Presorting SO-basis two-electron integrals.
	Sorting File: SO Ints (nn|nn) nbuckets = 2
	Transforming the one-electron integrals and constructing Fock matrices
	Starting first half-transformation.
	Sorting half-transformed integrals.
	First half integral transformation complete.
	Starting second half-transformation.
	Two-electron integral transformation complete.
	(OO|OV)...
	Starting second half-transformation.
	Two-electron integral transformation complete.
	(OO|VV)...
	Starting second half-transformation.
	Two-electron integral transformation complete.
	(OV|OO)...
	Starting first half-transformation.
	Sorting half-transformed integrals.
	First half integral transformation complete.
	Starting second half-transformation.
	Two-electron integral transformation complete.
	(OV|OV)...
	Starting second half-transformation.
	Two-electron integral transformation complete.
	(OV|VV)...
	Starting second half-transformation.
	Two-electron integral transformation complete.
	(VV|OO)...
	Starting first half-transformation.
	Sorting half-transformed integrals.
	First half integral transformation complete.
	Starting second half-transformation.
	Two-electron integral transformation complete.
	(VV|OV)...
	Starting second half-transformation.
	Two-electron integral transformation complete.
	(VV|VV)...
	Starting second half-transformation.
	Two-electron integral transformation complete.
	Frozen core energy     =      0.00000000000000

	Size of irrep 0 of <ab|cd> integrals:   3486.784 (MW) /  27894.275 (MB)
	Total:                                  3486.784 (MW) /  27894.275 (MB)

	Size of irrep 0 of <ia|bc> integrals:    129.140 (MW) /   1033.121 (MB)
	Total:                                   129.140 (MW) /   1033.121 (MB)

	Size of irrep 0 of tijab amplitudes:       4.783 (MW) /     38.264 (MB)
	Total:                                     4.783 (MW) /     38.264 (MB)

	Nuclear Rep. energy          =     38.25396838067549
	SCF energy                   =   -150.84623690941999
	One-electron energy          =   -284.04604367586495
	Two-electron energy          =     94.94583838576899
	Reference energy             =   -150.84623690942050

*** tstop() called on dt046 at Mon Nov 13 18:09:16 2017
Module time:
	user time   =     698.42 seconds =      11.64 minutes
	system time =     132.50 seconds =       2.21 minutes
	total time  =        805 seconds =      13.42 minutes
Total time:
	user time   =    1137.30 seconds =      18.95 minutes
	system time =     216.88 seconds =       3.61 minutes
	total time  =       1008 seconds =      16.80 minutes

*** tstart() called on dt046
*** at Mon Nov 13 18:09:16 2017

            **************************
            *                        *
            *        CCENERGY        *
            *                        *
            **************************

    Nuclear Rep. energy (wfn)     =   38.253968380675488
    SCF energy          (wfn)     = -150.846236909419986
    Reference energy    (file100) = -150.846236909420497

    Input parameters:
    -----------------
    Wave function   =     CCSD
    Reference wfn   =     RHF
    Brueckner       =     No
    Memory (Mbytes) =     8000.0
    Maxiter         =     50
    R_Convergence   =     1.0e-07
    E_Convergence   =     1.0e-08
    Restart         =     Yes
    DIIS            =     Yes
    AO Basis        =     NONE
    ABCD            =     NEW
    Cache Level     =     2
    Cache Type      =     LOW
    Print Level     =     1
    Num. of threads =     24
    # Amps to Print =     10
    Print MP2 Amps? =     No
    Analyze T2 Amps =     No
    Print Pair Ener =     No
    Local CC        =     No
    SCS-MP2         =     False
    SCSN-MP2        =     False
    SCS-CCSD        =     False

MP2 correlation energy -0.5965000405565285
                Solving CC Amplitude Equations
                ------------------------------
  Iter             Energy              RMS        T1Diag      D1Diag    New D1Diag    D2Diag
  ----     ---------------------    ---------   ----------  ----------  ----------   --------
     0        -0.596500040556522    0.000e+00    0.000000    0.000000    0.000000    0.152482
     1        -0.585823974237381    5.026e-02    0.007911    0.016938    0.016938    0.148989
     2        -0.597575775436921    1.894e-02    0.007909    0.016925    0.016925    0.157758
     3        -0.600220634147424    7.164e-03    0.009230    0.020116    0.020116    0.161825
     4        -0.599988984223477    1.712e-03    0.009397    0.020502    0.020502    0.162380
     5        -0.600036820194223    7.896e-04    0.009509    0.020760    0.020760    0.162688
     6        -0.600055135826681    2.779e-04    0.009543    0.020820    0.020820    0.162717
     7        -0.600048155401412    1.243e-04    0.009551    0.020815    0.020815    0.162702
     8        -0.600046630711191    4.905e-05    0.009554    0.020813    0.020813    0.162701
     9        -0.600048241839934    1.983e-05    0.009555    0.020811    0.020811    0.162702
    10        -0.600046709370033    8.559e-06    0.009555    0.020809    0.020809    0.162701
    11        -0.600047160575229    3.435e-06    0.009555    0.020808    0.020808    0.162702
    12        -0.600047088541924    1.501e-06    0.009555    0.020808    0.020808    0.162702
    13        -0.600047098457025    6.185e-07    0.009555    0.020808    0.020808    0.162702
    14        -0.600047115527831    2.231e-07    0.009555    0.020808    0.020808    0.162702
    15        -0.600047110671903    8.863e-08    0.009555    0.020808    0.020808    0.162702
    16        -0.600047109781565    3.399e-08    0.009555    0.020808    0.020808    0.162702

    Iterations converged.


    Largest TIA Amplitudes:
              8   8        -0.0100797662
              6  95        -0.0086256966
              5  17        -0.0077487926
              7   6        -0.0072338379
              8  23        -0.0070851083
              7  11         0.0070304656
              5   3        -0.0064723794
              5  30         0.0063747436
              5   4         0.0058806035
              5   6         0.0057856869

    Largest TIjAb Amplitudes:
      6   6  13  13        -0.0223068851
      6   6  18  18        -0.0215388066
      6   6  13  18         0.0206407535
      6   6  18  13         0.0206407535
      6   6  13  17         0.0173705645
      6   6  17  13         0.0173705645
      6   6  17  18        -0.0166898461
      6   6  18  17        -0.0166898461
      4   4  18  18        -0.0157954095
      6   6  17  17        -0.0152768264

    SCF energy       (wfn)                    = -150.846236909419986
    Reference energy (file100)                = -150.846236909420497

    Opposite-spin MP2 correlation energy      =   -0.456791652171735
    Same-spin MP2 correlation energy          =   -0.139708388384787
    MP2 correlation energy                    =   -0.596500040556528
      * MP2 total energy                      = -151.442736949977018

    Opposite-spin CCSD correlation energy     =   -0.475588297569338
    Same-spin CCSD correlation energy         =   -0.124458812175471
    CCSD correlation energy                   =   -0.600047109781565
      * CCSD total energy                     = -151.446284019202068


*** tstop() called on dt046 at Mon Nov 13 18:18:44 2017
Module time:
	user time   =    2407.87 seconds =      40.13 minutes
	system time =     240.42 seconds =       4.01 minutes
	total time  =        568 seconds =       9.47 minutes
Total time:
	user time   =    3545.17 seconds =      59.09 minutes
	system time =     457.30 seconds =       7.62 minutes
	total time  =       1576 seconds =      26.27 minutes

*** tstart() called on dt046
*** at Mon Nov 13 18:18:44 2017


			**************************
			*                        *
			*         CCHBAR         *
			*                        *
			**************************


*** tstop() called on dt046 at Mon Nov 13 18:20:25 2017
Module time:
	user time   =     213.90 seconds =       3.57 minutes
	system time =      32.85 seconds =       0.55 minutes
	total time  =        101 seconds =       1.68 minutes
Total time:
	user time   =    3759.07 seconds =      62.65 minutes
	system time =     490.15 seconds =       8.17 minutes
	total time  =       1677 seconds =      27.95 minutes

*** tstart() called on dt046
*** at Mon Nov 13 18:20:25 2017


			**************************
			*        CCLAMBDA        *
			**************************


	Nuclear Rep. energy (wfn)     =   38.253968380675488
	Reference           (wfn)     =                    0
	SCF energy          (wfn)     = -150.846236909419986
	Reference energy    (CC_INFO) = -150.846236909420497
	CCSD energy         (CC_INFO) =   -0.600047109781565
	Total CCSD energy   (CC_INFO) = -151.446284019202068

	Input parameters:
	-----------------
	Maxiter           =     50
	Convergence       = 1.0e-07
	Restart           =     No
	Cache Level       =     2
	Model III         =     No
	DIIS              =     Yes
	AO Basis          =     No
	ABCD              =     NEW
	Local CC          =     No
	Paramaters for left-handed eigenvectors:
	    Irr   Root  Ground-State?    EOM energy        R0
	  1   0     0        Yes       0.0000000000   1.0000000000
	Labels for eigenvector 1:
	LIA 0 -1, Lia 0 -1, LIJAB 0 -1, Lijab 0 -1, LIjAb 0 -1, 2LIjAb - LIjbA 0 -1
	Deleting old CC_LAMBDA data.
	Symmetry of left-hand state: A
	Symmetry of left-hand eigenvector: A

	          Solving Lambda Equations
	          ------------------------
	Iter     PseudoEnergy or Norm         RMS  
	----     ---------------------     --------
	   0        -0.600110826396215    0.000e+00
	   1        -0.586238660452035    1.347e-02
	   2        -0.585173787580681    3.094e-03
	   3        -0.584914070002793    1.501e-03
	   4        -0.584890873652557    4.593e-04
	   5        -0.584911322765917    1.788e-04
	   6        -0.584906919362746    6.792e-05
	   7        -0.584905868441087    2.992e-05
	   8        -0.584906590143823    1.221e-05
	   9        -0.584906547168942    4.654e-06
	  10        -0.584906551364711    1.923e-06
	  11        -0.584906515706013    8.145e-07
	  12        -0.584906501308396    3.107e-07
	  13        -0.584906502094809    1.222e-07
	  14        -0.584906501638111    4.440e-08

	Largest LIA Amplitudes:
	          8   8        -0.0070278689
	          6  95        -0.0069939722
	          5  17        -0.0054914748
	          8  23        -0.0050601320
	          7  11         0.0050468976
	          7   6        -0.0049380358
	          5  30         0.0049139037
	          5   3        -0.0044439838
	          5   6         0.0043112175
	          6  89         0.0041722398

	Largest LIjAb Amplitudes:
	  6   6  13  13        -0.0211098394
	  6   6  18  18        -0.0205035850
	  6   6  13  18         0.0195738178
	  6   6  18  13         0.0195738178
	  6   6  13  17         0.0164552999
	  6   6  17  13         0.0164552999
	  6   6  17  18        -0.0158303152
	  6   6  18  17        -0.0158303152
	  4   4  18  18        -0.0152193371
	  6   6  17  17        -0.0145541903

	Iterations converged.

	Overlap <L|e^T> =        0.87441734838

*** tstop() called on dt046 at Mon Nov 13 18:26:19 2017
Module time:
	user time   =    1608.48 seconds =      26.81 minutes
	system time =     179.28 seconds =       2.99 minutes
	total time  =        354 seconds =       5.90 minutes
Total time:
	user time   =    5367.55 seconds =      89.46 minutes
	system time =     669.43 seconds =      11.16 minutes
	total time  =       2031 seconds =      33.85 minutes

*** tstart() called on dt046
*** at Mon Nov 13 18:26:19 2017

			**************************
			*                        *
			*       ccresponse       *
			*                        *
			**************************

	Input parameters:
	-----------------
	Property         =    ROTATION
	Reference wfn    =    RHF
	Memory (Mbytes)  =    8000.0
	Cache Level      =    0
	Print Level      =    1
	Maxiter          =    50
	Convergence      =    1.0e-07
	Restart          =    Allowed
	DIIS             =    Yes
	Model III        =    No
	Linear Model     =    No
	ABCD             =    NEW
	Irrep X          =    A
	Irrep Y          =    A
	Irrep Z          =    A
	Irrep RX         =    A
	Irrep RY         =    A
	Irrep RZ         =    A
	Gauge            =    VELOCITY
	Applied field  0 =    0.077 E_h (589.00 nm, 2.105 eV, 16977.93 cm-1)
	Analyze X2 Amps  =    No
	Local CC         =    No


	DPD File2: P_X_IA
	DPD Parameters:
	------------------
	pnum = 0   qnum = 1   irrep = 0 
	Irreps = 1

	   Row and column dimensions for DPD Block:
	   ----------------------------------------
	   Irrep: 0 row =     9	col =   243

	File 101 DPD File2: P_X_IA
	Matrix for Irrep 0
	----------------------------------------

                         0                  1                  2                  3                  4                  5                  6                  7                  8     
                      (  0)              (  1)              (  2)              (  3)              (  4)              (  5)              (  6)              (  7)              (  8)    

    0  (  0)  0.000000060410801  0.043197405623664 -0.000000061120655 -0.106619722215750  0.123460099943695  0.000000050206231  0.113101756975295  0.000000057496174 -0.000000344414435
    1  (  1)  0.027538500515625 -0.000000096567644 -0.038684859027692  0.000000209086333 -0.000000269394879  0.052462122273154 -0.000000215340892  0.027531516779951 -0.161480662525164
    2  (  2) -0.000000001130390  0.004722180405886  0.000000002228277 -0.005414587899678  0.016784479307633 -0.000000005913232  0.008073107126583  0.000000000148006  0.000000000918349
    3  (  3) -0.012195014329740 -0.000000002069107  0.010104370238871 -0.000000002801307 -0.000000004746715 -0.014933766751138 -0.000000009232251 -0.001325768888008  0.021048022642258
    4  (  4) -0.000000002146775  0.024630885477271  0.000000005585200 -0.023609674898149  0.058483876873848 -0.000000012867953  0.018727094461980  0.000000001468722  0.000000001237592
    5  (  5)  0.074765071714594 -0.000000000381605 -0.030221600612889 -0.000000004195042 -0.000000000533730  0.065687254814589  0.000000032493554 -0.055887776488225  0.004735909561633
    6  (  6) -0.000000007651351 -0.008913993602886 -0.000000004023881  0.034140232732814 -0.021621417707442  0.000000009750515 -0.031091724211695  0.000000006285477 -0.000000000456730
    7  (  7) -0.014109613914644 -0.000000001315163 -0.007724937549550  0.000000001423132 -0.000000002725206  0.009015216835021  0.000000002408034  0.003852294592175  0.002417701431869
    8  (  8)  0.000000000592539  0.027566001125358 -0.000000006628672  0.030323899941521  0.042903921300718 -0.000000000375802 -0.000891295950869 -0.000000001363072  0.000000004155386

                         9                 10                 11                 12                 13                 14                 15                 16                 17     
                      (  9)              ( 10)              ( 11)              ( 12)              ( 13)              ( 14)              ( 15)              ( 16)              ( 17)    

    0  (  0)  0.044542150471903  0.000000142399763 -0.117523594031083  0.000000075497332 -0.022168888055802 -0.000000195768330  0.019769264452310  0.000000259296441 -0.203057686292627
    1  (  1) -0.000000091758651  0.067282959995453  0.000000247236268  0.032107172757194  0.000000025625869 -0.089327391682352 -0.000000070373988  0.119239493211487  0.000000444573725
    2  (  2)  0.018101210398614 -0.000000000586358 -0.021793907566779  0.000000001038241 -0.008190324767109 -0.000000001678727  0.011321300174274 -0.000000001060217 -0.037915510961325
    3  (  3)  0.000000001181802 -0.043876405226771 -0.000000003144023 -0.002135205995467 -0.000000012068922  0.022769139727398 -0.000000005349908 -0.033029940895896  0.000000005605172
    4  (  4)  0.139626565124310 -0.000000006382231 -0.050733625906888  0.000000004536097  0.001916058183136 -0.000000001782963 -0.009959671795015 -0.000000000188147 -0.068125214258348
    5  (  5)  0.000000009990532  0.204781750570571 -0.000000002655926 -0.037683941610271 -0.000000005961718  0.063574225434048  0.000000012828468  0.070095700792294 -0.000000002214787
    6  (  6)  0.050999125419834 -0.000000021606874  0.018930931130231  0.000000001131920 -0.024977004232352 -0.000000009310050  0.050173439996940 -0.000000008086342 -0.018875699433279
    7  (  7) -0.000000001202791 -0.032073318961113  0.000000006058796  0.041184870952777  0.000000002225394 -0.110542839668229 -0.000000012846451  0.018170139550007  0.000000001273712
    8  (  8)  0.001722486156372  0.000000001292825 -0.017770229368753 -0.000000000138510 -0.005742013786064 -0.000000009047482  0.074558541857831 -0.000000002073084  0.085759026588113

                        18                 19                 20                 21                 22                 23                 24                 25                 26     
                      ( 18)              ( 19)              ( 20)              ( 21)              ( 22)              ( 23)              ( 24)              ( 25)              ( 26)    

    0  (  0)  0.121276709872840  0.000000047133934 -0.009962112277444  0.000000039690367  0.204913188844591 -0.000000745292997 -0.105548667431016  0.000000008721926 -0.000000225861679
    1  (  1) -0.000000242561559  0.021713530768643  0.000000020308993  0.018779006728202 -0.000000449133954 -0.374596922143666  0.000000010398713  0.003569408813737 -0.104681932362509
    2  (  2)  0.034136644711786 -0.000000000348694 -0.025380688378687 -0.000000000268083  0.013485166951738  0.000000018774696 -0.031971568601656  0.000000000810188 -0.000000000123117
    3  (  3)  0.000000010750473  0.015748032494640  0.000000003816564 -0.059749953607356  0.000000001673329  0.113373001026255  0.000000057423210 -0.003809187454066  0.086696526712193
    4  (  4)  0.155828628793313  0.000000003190334 -0.281646739124490 -0.000000014043449 -0.026245982079103 -0.000000019665345  0.037726413698906 -0.000000002052011  0.000000000599922
    5  (  5)  0.000000003363464 -0.070502766378408 -0.000000025328940  0.362844776456157 -0.000000022738925  0.041122520086703  0.000000018374109  0.014400735559150 -0.147630431639341
    6  (  6) -0.019717415143781  0.000000004176474 -0.138348908457659 -0.000000037569317 -0.194861616698922  0.000000049275560 -0.084526097397938  0.000000004922653  0.000000024607704
    7  (  7) -0.000000004038565  0.100998698361759 -0.000000001646458 -0.106429952353648 -0.000000006240701 -0.012980780169308 -0.000000007649619 -0.130968196855480 -0.228127376456924
    8  (  8)  0.132893198028338  0.000000000272154  0.099823762766868  0.000000002137400 -0.034316139808035 -0.000000069875499  0.131979650315253 -0.000000002234560  0.000000002510783

                        27                 28                 29                 30                 31                 32                 33                 34                 35     
                      ( 27)              ( 28)              ( 29)              ( 30)              ( 31)              ( 32)              ( 33)              ( 34)              ( 35)    

    0  (  0) -0.168092119244665  0.018585259325383 -0.000000069378764  0.175173738527249 -0.000000007005973  0.068598208483186 -0.047093664417413 -0.000000125937043  0.000000160558673
    1  (  1)  0.000000354021869 -0.000000043481998 -0.031970947064784 -0.000000378074357 -0.008438103020908 -0.000000144109623  0.000000101265287 -0.058606392411859  0.074462118580258
    2  (  2) -0.055028737319812  0.015956681082271 -0.000000000585501  0.075879643326700  0.000000000388192  0.000547654082075 -0.010153284384019 -0.000000000083521  0.000000000229751
    3  (  3) -0.000000001360959 -0.000000000996366 -0.006482932707553 -0.000000002237669  0.009004260992278 -0.000000000784468 -0.000000002326084  0.021997619609074 -0.034633707761571
    4  (  4) -0.101282695971396  0.081673822562550 -0.000000002723330 -0.087923562012866  0.000000000828813  0.032750801310145 -0.022374413329871 -0.000000003409254  0.000000004216550
    5  (  5)  0.000000005806888 -0.000000002991402  0.039815860834513  0.000000014369430  0.046839213988888 -0.000000013153035 -0.000000001541096  0.069197427751973 -0.018207723963443
    6  (  6)  0.070228294682012 -0.053289314713876 -0.000000004599253  0.165256330086497 -0.000000010167980 -0.074540631950742  0.023215522523888 -0.000000002178545 -0.000000001541695
    7  (  7)  0.000000007123820 -0.000000003048307  0.014940088532000  0.000000009365200 -0.070255547531146  0.000000004148596  0.000000003517691 -0.057546455407216  0.056805935079101
    8  (  8) -0.102926500612275  0.154363030277839 -0.000000000471350  0.138349356139237 -0.000000011120886 -0.096696030470966  0.068527686926828  0.000000001308903  0.000000001932082

                        36                 37                 38                 39                 40                 41                 42                 43                 44     
                      ( 36)              ( 37)              ( 38)              ( 39)              ( 40)              ( 41)              ( 42)              ( 43)              ( 44)    

    0  (  0) -0.000000470541723  0.117338314646879  0.104176073960544  0.000000216164606  0.445559739661235 -0.000000508220076  0.048250072404126  0.000000550866196  0.177936606767336
    1  (  1) -0.219127017026765 -0.000000253148011 -0.000000229230849  0.099822315573656 -0.000000949280856 -0.237639843203228 -0.000000103467425  0.259582571600838 -0.000000373940830
    2  (  2)  0.000000000616792  0.022006347098764  0.037694301444126  0.000000000974216  0.125052191339659 -0.000000000117828  0.028201287863593 -0.000000000970381  0.062256983410220
    3  (  3)  0.068884600273662  0.000000000534926  0.000000004761955 -0.025177720454318 -0.000000000462163  0.068502044964326 -0.000000000557458 -0.077107232643164  0.000000002514142
    4  (  4) -0.000000002428250 -0.003524303876836  0.149165936192479  0.000000004937120  0.014740200359709 -0.000000001837960 -0.053795590176293  0.000000003428848 -0.210197468307145
    5  (  5) -0.031363703912640 -0.000000006354971  0.000000006238715 -0.034810992907611  0.000000000507636 -0.011968508652876  0.000000006357013 -0.130829744965149 -0.000000009307104
    6  (  6)  0.000000005226813 -0.049896785912177  0.019076963373630  0.000000008115560 -0.001836966543049  0.000000000553759  0.078640037784738  0.000000018931527  0.004892765567232
    7  (  7) -0.028444788399340 -0.000000003358747  0.000000000114765 -0.047709509122789  0.000000000433813  0.023793049561548  0.000000004030319 -0.115666749553327  0.000000002519035
    8  (  8) -0.000000002006979 -0.088021506699189  0.133287976712599  0.000000005719872 -0.048145397973144 -0.000000001866838  0.034673073832577 -0.000000001012303  0.079478910860846

                        45                 46                 47                 48                 49                 50                 51                 52                 53     
                      ( 45)              ( 46)              ( 47)              ( 48)              ( 49)              ( 50)              ( 51)              ( 52)              ( 53)    

    0  (  0) -0.258068464063268  0.000000125244889 -0.000000553816325 -0.000000408666180  0.211563528144744  0.081431532539857  0.000000336218356 -0.077775264229908  0.000000209850368
    1  (  1)  0.000000547215164  0.058813594432603 -0.259140506147477 -0.192345032554098 -0.000000449726147 -0.000000170111278  0.157093169215336  0.000000163987926  0.097180377905837
    2  (  2) -0.063502648058090 -0.000000000261711 -0.000000000294032  0.000000001012185  0.139101675427791  0.075890986631910 -0.000000001604812 -0.042125457331494  0.000000001609870
    3  (  3)  0.000000000075557 -0.029271154528163  0.100987754155702  0.192761757814624 -0.000000001384965 -0.000000003890081 -0.083792631715675  0.000000000163737 -0.026749834005612
    4  (  4) -0.056309442208020 -0.000000002978956  0.000000000431543  0.000000013575766  0.305145501054186 -0.164202007773415  0.000000014840098 -0.014795374532744  0.000000008953624
    5  (  5)  0.000000005015627  0.021884351387679 -0.018524645149945 -0.415922724792260  0.000000021048936  0.000000033223471 -0.160347002565515 -0.000000031727330 -0.272989300628897
    6  (  6)  0.057238950281618 -0.000000001035782  0.000000000896110  0.000000050402960  0.105268631090073  0.361645328251392 -0.000000007251123 -0.244601792561292  0.000000028863072
    7  (  7)  0.000000003047696 -0.022820868574218  0.006663164987673 -0.057844407841053  0.000000000635928  0.000000027711135  0.381041248849174 -0.000000010981796  0.067934346652031
    8  (  8)  0.138190497527270  0.000000001171080  0.000000000953403 -0.000000000771921  0.193224841387960 -0.040300477924440  0.000000001771930  0.305755014253257 -0.000000002147134

                        54                 55                 56                 57                 58                 59                 60                 61                 62     
                      ( 54)              ( 55)              ( 56)              ( 57)              ( 58)              ( 59)              ( 60)              ( 61)              ( 62)    

    0  (  0) -0.080418518229963  0.000000122335228 -0.138598200962144 -0.000000201416467 -0.005340304804652  0.000000022335552 -0.000000268477778  0.234126814416122 -0.144443892242510
    1  (  1)  0.000000172776150  0.057043790936118  0.000000295367744 -0.096433471492100  0.000000013657949  0.011008546550092 -0.123590064257547 -0.000000498920027  0.000000312811640
    2  (  2) -0.061619084465015  0.000000000940508 -0.096340416253898  0.000000003650184 -0.036630309011385  0.000000005031391 -0.000000001403447  0.076208534435329 -0.036014543397861
    3  (  3) -0.000000001025063 -0.047200414980465  0.000000001499563  0.046244320661298  0.000000001364626  0.006190449267850  0.041817571825751  0.000000000696368 -0.000000002177411
    4  (  4)  0.157621236017193 -0.000000001060398  0.097560052589583 -0.000000000547547 -0.012598656695864  0.000000008295179  0.000000005899327 -0.041971956322393 -0.058351629855064
    5  (  5) -0.000000001841590  0.010513968177256 -0.000000017758642 -0.014933242514678 -0.000000036697812 -0.103952192760926 -0.170453885274168 -0.000000003023186  0.000000011215701
    6  (  6) -0.075020559671083 -0.000000003709239 -0.179094849528929 -0.000000004603990 -0.170113214472007  0.000000032565007  0.000000014679938 -0.023899220457284  0.100949686901111
    7  (  7) -0.000000002500165  0.079062034879437 -0.000000001735565  0.182468399945215  0.000000002526486  0.072037073489331  0.042706643964440 -0.000000001248099  0.000000004837022
    8  (  8) -0.094427123268201 -0.000000005657868 -0.329116122731963  0.000000021124134  0.077118685682116 -0.000000011179890 -0.000000007273835 -0.187258368756039 -0.182823767887885

                        63                 64                 65                 66                 67                 68                 69                 70                 71     
                      ( 63)              ( 64)              ( 65)              ( 66)              ( 67)              ( 68)              ( 69)              ( 70)              ( 71)    

    0  (  0)  0.000000180528536 -0.102770917300777  0.000000687305209 -0.113456804726977  0.000000087936143  0.106264084436069 -0.000000042934131  0.224344153455876 -0.000000068743321
    1  (  1)  0.078730087173077  0.000000227932677  0.321579289687947  0.000000243393677  0.040345033597595 -0.000000225987250 -0.018499459140361 -0.000000479555405 -0.029016793626583
    2  (  2)  0.000000003807053 -0.028534795770654  0.000000000119253 -0.036055413743182  0.000000000625146  0.041486898740621 -0.000000001240355  0.054199759112172 -0.000000002056641
    3  (  3) -0.023521867082131 -0.000000002542507 -0.107624011546070 -0.000000000906476 -0.015197732602770  0.000000000418345  0.004892563483224  0.000000001364121  0.029117009210151
    4  (  4)  0.000000000077376  0.057947778835979  0.000000000182069  0.095063314540271 -0.000000004305286  0.023882016481624  0.000000003959135 -0.046930117549228  0.000000004593412
    5  (  5) -0.077231580322819  0.000000002013471 -0.090235455468740  0.000000009444281  0.049333324119965  0.000000008022259 -0.040687995436011 -0.000000015506361 -0.091250408500673
    6  (  6) -0.000000005545943  0.073391118300121  0.000000011238315  0.062922372680424 -0.000000005262558  0.061299431841805 -0.000000001374583 -0.119682342485392  0.000000008213509
    7  (  7)  0.124738670551752  0.000000013337726 -0.099793234349087  0.000000001921097 -0.009226830141857  0.000000003635359  0.115100214339279 -0.000000001570380  0.070794895395511
    8  (  8)  0.000000002411476  0.046063946695717  0.000000005598214 -0.052894514774474  0.000000002169500 -0.067436861637488 -0.000000004171306 -0.139312954339222  0.000000004591857

                        72                 73                 74                 75                 76                 77                 78                 79                 80     
                      ( 72)              ( 73)              ( 74)              ( 75)              ( 76)              ( 77)              ( 78)              ( 79)              ( 80)    

    0  (  0)  0.077216756355570 -0.000000217635396  0.220248238824631  0.000000339071514 -0.336662043508700  0.000000304379499 -0.191021819221415 -0.088092578140778  0.000000160419687
    1  (  1) -0.000000172422803 -0.098961354371733 -0.000000465371085  0.160957378117213  0.000000716614644  0.144576292477440  0.000000405554185  0.000000189059908  0.075525140938823
    2  (  2)  0.046790553720472 -0.000000003753944  0.079783173137254 -0.000000001560481 -0.123193522763601 -0.000000001617895 -0.088021096531448 -0.057652984755825 -0.000000000503073
    3  (  3)  0.000000002536017  0.036641047536770 -0.000000001641236 -0.064334695249655  0.000000000632125 -0.051152987858486 -0.000000000224050 -0.000000000152136 -0.000139217622417
    4  (  4)  0.010115034107406  0.000000001403582 -0.003527753642129  0.000000000091996  0.118733637185211  0.000000007094530  0.198390047549967  0.034987225451155  0.000000003309918
    5  (  5)  0.000000007067002 -0.022716418269583 -0.000000004489443 -0.055519949429010  0.000000007792374 -0.125483790950220  0.000000000585434 -0.000000004957876 -0.112599864580209
    6  (  6)  0.099173196189453 -0.000000010079371 -0.020634590724167  0.000000008443369  0.028498249957577  0.000000009569880 -0.058572446679792 -0.061045369271487  0.000000014355552
    7  (  7)  0.000000014274603  0.085840091387604 -0.000000000771752 -0.047374466460373 -0.000000001520528  0.088807149941969 -0.000000004172026 -0.000000002549134 -0.059862925775667
    8  (  8)  0.076788656449481 -0.000000004940035 -0.061795334418122  0.000000003538268 -0.081296465122507 -0.000000001673311 -0.049108022505555 -0.194296472357934 -0.000000000057775

                        81                 82                 83                 84                 85                 86                 87                 88                 89     
                      ( 81)              ( 82)              ( 83)              ( 84)              ( 85)              ( 86)              ( 87)              ( 88)              ( 89)    

    0  (  0)  0.091401127404469 -0.000000016329713 -0.096277128723136 -0.000000211214982  0.019143581139381  0.036448872683908  0.000000124240223 -0.000000041224234  0.000000149245005
    1  (  1) -0.000000193528426 -0.006896618974824  0.000000211362054 -0.096399469039541 -0.000000042400776 -0.000000077315956  0.058530728761854 -0.019421140069702  0.070120798739258
    2  (  2)  0.052803061945001 -0.000000000244529 -0.016978261339879 -0.000000000972833  0.058665740714360 -0.013226746985383  0.000000000252767  0.000000000024122 -0.000000001790454
    3  (  3)  0.000000000487076  0.006067404623763  0.000000002085512 -0.038697175909875 -0.000000001110145  0.000000001143469 -0.046201573819343 -0.008061690095806 -0.024968749987963
    4  (  4)  0.009536118276455  0.000000002028765  0.075179848576670 -0.000000000466537  0.062514556397217 -0.228218031195416 -0.000000003839459 -0.000000002903318 -0.000000004637428
    5  (  5)  0.000000012393828 -0.065032848024481 -0.000000011103093  0.275399545993954  0.000000028747308  0.000000002111158  0.155514300876122  0.051395074425591  0.087374964077059
    6  (  6)  0.104714994240553  0.000000006742468  0.021599986695652 -0.000000040064217  0.225919858381875  0.030901349026837 -0.000000012747682 -0.000000002148269 -0.000000004339987
    7  (  7)  0.000000004709187 -0.002595171562775 -0.000000014360370  0.252728971713969  0.000000011612057  0.000000003485815 -0.041033178353905 -0.076873838453463 -0.133499296321452
    8  (  8) -0.127206448252538 -0.000000001302480  0.051988116035146  0.000000004168564  0.056693770267850 -0.336553674741816  0.000000000609209 -0.000000006567379 -0.000000000049721

                        90                 91                 92                 93                 94                 95                 96                 97                 98     
                      ( 90)              ( 91)              ( 92)              ( 93)              ( 94)              ( 95)              ( 96)              ( 97)              ( 98)    

    0  (  0)  0.000001184986304 -0.104571227588356  0.020291658039026 -0.460515664262108  0.000000273917496  0.000000191838284 -0.690601446514506  0.000000820830489  0.107842686250258
    1  (  1)  0.556410571073390  0.000000220402890 -0.000000045723227  0.000000983010229  0.125087148084092  0.090674670809292  0.000001469812271  0.387086310128195 -0.000000237985743
    2  (  2) -0.000000001066461 -0.042988805694396 -0.003636539082083 -0.209122308076382  0.000000003017428  0.000000000789291 -0.264725261360029 -0.000000001543396  0.010750213206501
    3  (  3) -0.312738779438597  0.000000001255289  0.000000002459689 -0.000000001071108 -0.084674810554970 -0.032250069441498  0.000000000378386 -0.127343667592228  0.000000006361055
    4  (  4) -0.000000000721544 -0.104646167323118  0.046789223479487  0.018779547138085  0.000000002624577 -0.000000000487763 -0.073432611978329 -0.000000002953326 -0.046088175343070
    5  (  5) -0.016913905609307  0.000000003504691 -0.000000011238829  0.000000006841738  0.016087862428144 -0.000764987411471  0.000000006084921  0.019205351611628 -0.000000007312896
    6  (  6)  0.000000005093756  0.061008732324864 -0.111592252531227  0.047198135213830 -0.000000010224026  0.000000001525147  0.078657237250928  0.000000001705039 -0.008560222368302
    7  (  7) -0.048035955478753  0.000000003184022 -0.000000005978019  0.000000004590125  0.165800945478208 -0.036581298516208  0.000000002739383 -0.086132383701213  0.000000003513264
    8  (  8) -0.000000016102207  0.012664194880538 -0.002067519174664 -0.191431974524678  0.000000003823831  0.000000002753062  0.056738143160157  0.000000011651498  0.032028187612318

                        99                100                101                102                103                104                105                106                107     
                      ( 99)              (100)              (101)              (102)              (103)              (104)              (105)              (106)              (107)    

    0  (  0)  0.000000413744988 -0.000000199018898 -0.441539364943365 -0.000001248693212  0.182369039400889  0.000000595142829  0.139018546094545 -0.000000007834295 -0.106692824309680
    1  (  1)  0.192438329683707 -0.092743729492061  0.000000907497710 -0.596224062723445 -0.000000387953650  0.279511202845077 -0.000000297020021 -0.004311607112511  0.000000226083072
    2  (  2)  0.000000000184825  0.000000000434271 -0.186662132035050  0.000000009712718  0.093877632957202  0.000000000277651  0.089187759843480  0.000000000493897 -0.068626099012032
    3  (  3) -0.143609886430039  0.053554226539868  0.000000011994123  0.215392454875259 -0.000000000147916 -0.117303047219178  0.000000000178707 -0.006101819832615  0.000000000675509
    4  (  4) -0.000000007350608 -0.000000000633880 -0.061752331585352  0.000000004089003  0.016428551958737  0.000000003595326 -0.013268812561469 -0.000000003379698  0.030300316628854
    5  (  5)  0.110367894080782  0.030340951168351  0.000000000597364 -0.005544208565284 -0.000000006156497 -0.120692933990331  0.000000009120881  0.104004043770119 -0.000000009939402
    6  (  6) -0.000000010311053 -0.000000003371443  0.039010900164756 -0.000000001799740 -0.063037067967990  0.000000010930067  0.089508172980999 -0.000000012541599 -0.087372979784039
    7  (  7) -0.050976602296975  0.009879279531229  0.000000003872051  0.018861938088290 -0.000000003791990  0.016894130243926  0.000000003975292  0.023354827292968 -0.000000003548933
    8  (  8)  0.000000006651504  0.000000003066069  0.096666510211570 -0.000000019233100  0.003694919641175  0.000000006169437  0.053558168983058  0.000000008395704  0.150608621466136

                       108                109                110                111                112                113                114                115                116     
                      (108)              (109)              (110)              (111)              (112)              (113)              (114)              (115)              (116)    

    0  (  0)  0.129709838210548  0.000000372886511  0.077813772440154  0.000000646206791 -0.000000467986622  0.122558181726476 -0.633740939033638 -0.000000632896046  0.000070328803805
    1  (  1) -0.000000277977332  0.175869094393261 -0.000000174378330  0.302537844269905 -0.217381448005911 -0.000000258236192  0.000001349388030 -0.297922677439254 -0.000000002950812
    2  (  2)  0.045406587784656 -0.000000000593490  0.046905244304130  0.000000000441064 -0.000000001127601  0.024551605080267 -0.236470645512906  0.000000000599848 -0.042573941904475
    3  (  3)  0.000000000817569 -0.054960051418412  0.000000002935732 -0.103624867729154  0.061662629599082 -0.000000000670849  0.000000000063693  0.091222832997182 -0.000000003223091
    4  (  4) -0.058560504823376 -0.000000003292325 -0.174180485362739 -0.000000004990579 -0.000000001682604 -0.004178291107746  0.122314054909102 -0.000000011694422 -0.045549710606524
    5  (  5) -0.000000008058791 -0.011551326605741 -0.000000007289213  0.010777504171125  0.113739859630367 -0.000000018869344  0.000000008195363  0.291238408403584 -0.000000007734852
    6  (  6) -0.045856193410080  0.000000007512152 -0.014257155536691 -0.000000000381366 -0.000000014499353 -0.166792072920339  0.052460567494441 -0.000000023709169 -0.191279567241115
    7  (  7)  0.000000000601188 -0.161348680641296  0.000000000813177 -0.033553234816050  0.074308506151218 -0.000000007116984 -0.000000000986119 -0.157838923532771 -0.000000003466816
    8  (  8)  0.054506001230987  0.000000004644830  0.116015719389664  0.000000009987598 -0.000000003083004 -0.023111534005317  0.136598609451208 -0.000000004609299  0.042276746966401

                       117                118                119                120                121                122                123                124                125     
                      (117)              (118)              (119)              (120)              (121)              (122)              (123)              (124)              (125)    

    0  (  0) -0.000000012836733 -0.162913705596219  0.000000214781669 -0.000000495653561  0.027154095723757  0.000000620642718  0.011806261331083  0.000000109111917 -0.231894937003637
    1  (  1) -0.011156994494942  0.000000345522848  0.100802242101519 -0.231921153739923 -0.000000040242577  0.292023834071168 -0.000000011935850  0.050176859121841  0.000000497258119
    2  (  2)  0.000000012972459 -0.071971848982156 -0.000000000707432  0.000000000969732  0.019567574164151 -0.000000001798903  0.028044987435294  0.000000000806078 -0.072060022630807
    3  (  3) -0.019734081831484  0.000000000247866 -0.006135576730025  0.071816335556946 -0.000000006144312 -0.147377868560812 -0.000000006523366 -0.034025045290905 -0.000000001636215
    4  (  4)  0.000000006719510  0.023726531560796 -0.000000001362225  0.000000007582191  0.081718301714562  0.000000001157077 -0.047783360862826 -0.000000010159833 -0.004386604510438
    5  (  5)  0.076855449310669 -0.000000001814284 -0.052724163950131 -0.000936408995826  0.000000001531792  0.017503901170422  0.000000011759182  0.147757705482197  0.000000015507750
    6  (  6)  0.000000033062283 -0.054617049060285  0.000000013792952 -0.000000000540888  0.002708820017853 -0.000000005901579  0.117090517410874 -0.000000007628331  0.124240421958569
    7  (  7)  0.016803076434463 -0.000000001893970 -0.211736218146279  0.078027508705697 -0.000000006216781  0.001601612480130  0.000000004705704 -0.153231671101166  0.000000002542610
    8  (  8) -0.000000019553020  0.126914691441619  0.000000001939637  0.000000002337313  0.109370802851927 -0.000000004680983  0.067445538185481 -0.000000000671039 -0.071056830518238

                       126                127                128                129                130                131                132                133                134     
                      (126)              (127)              (128)              (129)              (130)              (131)              (132)              (133)              (134)    

    0  (  0) -0.099591364047998  0.000000112808697 -0.016412728100069  0.000000189345362 -0.000000180614406 -0.069552489308635  0.121002795759579 -0.000000539278091 -0.049788666067003
    1  (  1)  0.000000214476492  0.053362409001150  0.000000035121682  0.088583434951262 -0.084462651656764  0.000000147305717 -0.000000256546356 -0.251926073256836  0.000000125788443
    2  (  2) -0.017512311368061 -0.000000000108720  0.012986401026477  0.000000000495397  0.000000000964153 -0.014050385123516  0.047732732203811  0.000000001164771 -0.005072386164992
    3  (  3) -0.000000001836223 -0.018978574270022  0.000000000129584 -0.030926891185995  0.011117668796861  0.000000000371804 -0.000000000594804  0.114299781416839 -0.000000009595242
    4  (  4)  0.132548183056225 -0.000000003914414 -0.067490621989752 -0.000000002372251 -0.000000011671915 -0.071132856730182 -0.086016728796862 -0.000000003883619  0.027668044141623
    5  (  5)  0.000000011607549  0.085177584224651  0.000000004655649  0.012192352348957  0.239966638316537  0.000000003289684 -0.000000012958369  0.195336751448805 -0.000000018609725
    6  (  6)  0.086167281637114 -0.000000002509075  0.078385375174311 -0.000000001286920 -0.000000015034130  0.071946973152738 -0.060741365105013 -0.000000022309215 -0.012713429348913
    7  (  7)  0.000000003013994 -0.121453572198412  0.000000004776338  0.009030326361924 -0.167037825587259  0.000000004921830 -0.000000002896636  0.020997955247242 -0.000000001900703
    8  (  8)  0.140815699478097  0.000000001353531  0.156266484384797  0.000000002800056 -0.000000001796767  0.132400239446193  0.291383533173929  0.000000031216414  0.304042143314209

                       135                136                137                138                139                140                141                142                143     
                      (135)              (136)              (137)              (138)              (139)              (140)              (141)              (142)              (143)    

    0  (  0) -0.000000176802503 -0.077954265324005 -0.000000430119037  0.000000182600785  0.073819202624887  0.000000029981137  0.010813004389107 -0.000000382532155  0.095645001693213
    1  (  1) -0.082902179231128  0.000000164662977 -0.201479930815792  0.085674261674336 -0.000000158209677  0.016276578750268 -0.000000025014646 -0.178785099572578 -0.000000204565443
    2  (  2) -0.000000000237844 -0.051019507671228  0.000000000636115  0.000000000192151  0.009362764352171 -0.000000000446860  0.038461255466237 -0.000000000373287  0.029016637738608
    3  (  3)  0.037380198016475  0.000000000640013  0.079322434484509 -0.095857892636171  0.000000003590466  0.025184276257337  0.000000000338691  0.107639075427900 -0.000000000266205
    4  (  4)  0.000000002294374 -0.017901334963771 -0.000000001819578 -0.000000005371605 -0.195168364234381  0.000000014409247  0.033157348131024  0.000000000381357 -0.055748866688927
    5  (  5) -0.110992149778501 -0.000000014054275  0.128275253695938  0.150222853414324 -0.000000016478108 -0.125991802571799  0.000000016551829  0.091154310553738 -0.000000007454408
    6  (  6)  0.000000016042445 -0.118938210045658 -0.000000014173093 -0.000000014082580 -0.061896431888432  0.000000019569055  0.127830837597651 -0.000000017358310 -0.042362696757936
    7  (  7) -0.083992613713846 -0.000000005166645  0.069006766019708  0.009567585515511 -0.000000003463568 -0.046134664941677  0.000000007650633  0.142127152421040 -0.000000000738835
    8  (  8) -0.000000006169272  0.179654653407358  0.000000003232975 -0.000000012109351 -0.234595599280105  0.000000017379675  0.077576513201635  0.000000014353720  0.094752351707113

                       144                145                146                147                148                149                150                151                152     
                      (144)              (145)              (146)              (147)              (148)              (149)              (150)              (151)              (152)    

    0  (  0)  0.000000113520950 -0.173156286169097  0.138527222604374  0.000000444533715 -0.131928161897402 -0.000000630275456 -0.141840386900030 -0.000001080245145  0.354083521336681
    1  (  1)  0.049157339249973  0.000000370472717 -0.000000294952806  0.207324032470260  0.000000292744717 -0.294361280689968  0.000000301898456 -0.505908197257958 -0.000000760123238
    2  (  2)  0.000000002384950 -0.056431359801774  0.055416309941144  0.000000000602536 -0.031191973165500 -0.000000000572136 -0.082747658039182 -0.000000000885516  0.114133003881901
    3  (  3) -0.083342000398118 -0.000000004671900 -0.000000000043080 -0.060539020882578 -0.000000004426947  0.133548274654615  0.000000000547348  0.203451120931247  0.000000002587878
    4  (  4)  0.000000005036808  0.000325030608460 -0.081651620207127 -0.000000003038678 -0.048187062797036 -0.000000000102667  0.091999630345196  0.000000004761288  0.081088896553499
    5  (  5) -0.055213707547691  0.000000004685193 -0.000000005630551  0.024166675192781  0.000000010808207 -0.028597440008346 -0.000000015953340 -0.120213212960507 -0.000000019780113
    6  (  6) -0.000000002755295  0.067570508392194 -0.019401082697825  0.000000004539323  0.098875539389734  0.000000007244643 -0.152000680087229  0.000000009708379 -0.173092135458297
    7  (  7)  0.130402682037399  0.000000009533600 -0.000000001697731 -0.189333925541233  0.000000000412436 -0.048520010419076 -0.000000006788676  0.108057883944779 -0.000000004998059
    8  (  8) -0.000000010088955 -0.055723786343310  0.200349619757763 -0.000000002005400  0.065541254688164 -0.000000000496713 -0.046909169004771 -0.000000007105795  0.110883592413899

                       153                154                155                156                157                158                159                160                161     
                      (153)              (154)              (155)              (156)              (157)              (158)              (159)              (160)              (161)    

    0  (  0)  0.000000303262485  0.286201906736829  0.019211600307034  0.000000483145086 -0.000000432695888  0.000000784087055  0.072899250913430  0.018253188303534 -0.000000235339182
    1  (  1)  0.144336924941009 -0.000000607679906 -0.000000038674382  0.225879737260854 -0.203026432919030  0.368404414904812 -0.000000155404834 -0.000000038787746 -0.110478233592884
    2  (  2) -0.000000001605473  0.129861126985557 -0.000728644449028  0.000000000399806  0.000000000343024 -0.000000000455205  0.026294343205040  0.010728030373777  0.000000000111815
    3  (  3) -0.053568983455315 -0.000000001237025 -0.000000001100543 -0.080515226707188  0.052045901307554 -0.132601313162104 -0.000000000048832 -0.000000000129698  0.033433443287068
    4  (  4) -0.000000000428036  0.069548333807889  0.121669664700505  0.000000004999798 -0.000000000770047 -0.000000000474881 -0.017155535175142 -0.017439079741108  0.000000000420970
    5  (  5)  0.014372627040938  0.000000013131478  0.000000004715663 -0.100216860628809  0.082588948395966 -0.007411970495537 -0.000000000156001  0.000000003572470  0.001154006447693
    6  (  6) -0.000000002932539  0.095687595695203  0.015787512759207  0.000000004601897 -0.000000011652049  0.000000000875255 -0.002253694139560  0.035089461886316 -0.000000000750925
    7  (  7)  0.054706965007671  0.000000003879826  0.000000000564949  0.119065145149072  0.087799499876422 -0.016829974684267  0.000000000371663  0.000000001657530  0.015983729398428
    8  (  8)  0.000000004134404  0.011528186960000 -0.071562777483662  0.000000003052940 -0.000000004931963  0.000000004611241 -0.002331601201160 -0.013981022548174 -0.000000001608882

                       162                163                164                165                166                167                168                169                170     
                      (162)              (163)              (164)              (165)              (166)              (167)              (168)              (169)              (170)    

    0  (  0)  0.009455204788648  0.000000165055101 -0.015991778197647 -0.000000290866114  0.161498753175243 -0.000000137790131  0.122927511902834  0.000000342764674  0.047285841859171
    1  (  1) -0.000000019412310  0.077498457024413  0.000000035626581 -0.133438803769964 -0.000000347915409 -0.066175974518695 -0.000000259346315  0.157623217997999 -0.000000129323586
    2  (  2)  0.013102144725447 -0.000000000069731 -0.008180128576467 -0.000000003069605  0.084258570318690  0.000000001396779  0.037098949387955  0.000000002366930  0.016709048911405
    3  (  3) -0.000000000275982 -0.017891657724231 -0.000000000402453  0.078625922206837  0.000000002365719  0.036401692728705 -0.000000000826728 -0.055269956240575  0.000000009965809
    4  (  4) -0.004673096806315  0.000000000094885  0.004066622267305 -0.000000000815040  0.004009294576283 -0.000000000248004  0.003346861876457 -0.000000004207183 -0.017185778456869
    5  (  5)  0.000000002524859 -0.018812588725738  0.000000002794442  0.039323697020550  0.000000000799521  0.016398167785259 -0.000000003726100  0.019017871366695 -0.000000000227558
    6  (  6)  0.022035504864201  0.000000003241743  0.019925932974121 -0.000000003263362 -0.015958065521864 -0.000000001639988 -0.036918081054075  0.000000006441041  0.036918584707796
    7  (  7)  0.000000000811268 -0.028890027453311  0.000000000781191  0.009628387092784 -0.000000001241236 -0.004345875683747 -0.000000002197683 -0.026550052730267  0.000000007122940
    8  (  8)  0.016955027573800  0.000000001060833 -0.079883788323475  0.000000000524763 -0.046416346709660 -0.000000002265395  0.000062714342833  0.000000008254134  0.037131134521610

                       171                172                173                174                175                176                177                178                179     
                      (171)              (172)              (173)              (174)              (175)              (176)              (177)              (178)              (179)    

    0  (  0)  0.000000030459630  0.145886730030209  0.165556491731149  0.000000382188423  0.000000071843042  0.000000145703413  0.243691967608520 -0.000000012540345 -0.119679858391946
    1  (  1)  0.013652811831446 -0.000000310989094 -0.000000352605399  0.179651204387058  0.033864086339060  0.066742335528094 -0.000000519203253 -0.009901656654026  0.000000254390552
    2  (  2)  0.000000000199528  0.046456911708698  0.053098076476259 -0.000000000254054 -0.000000000209705  0.000000001427499  0.099334735332171  0.000000003238502 -0.064134849819979
    3  (  3) -0.001935354844542  0.000000000104770  0.000000000065507 -0.063318657347264 -0.011878243558668 -0.042519968640202 -0.000000001261895  0.037999643418966  0.000000000204569
    4  (  4)  0.000000001244089  0.030723229075083 -0.021928497870892 -0.000000000352148  0.000000000494062  0.000000000808784  0.061059956679712  0.000000003369938 -0.024397767056832
    5  (  5) -0.011564690099262 -0.000000003907670 -0.000000002868486 -0.009647669171812 -0.011136341189265  0.031365879867428  0.000000003984236 -0.049898948171050 -0.000000000883618
    6  (  6) -0.000000001518630 -0.041998944758282 -0.022654044245987  0.000000002833359  0.000000000826730 -0.000000004888004  0.004969216334773  0.000000007203162 -0.003088900537259
    7  (  7)  0.037672910448679 -0.000000001688492 -0.000000000607783 -0.032771164096080  0.003145496549420  0.043269904884797  0.000000000358419 -0.034247931768463  0.000000000618237
    8  (  8)  0.000000002058865 -0.012966089060465 -0.022000277517311 -0.000000000063692 -0.000000000063108 -0.000000000566142 -0.006083850917249 -0.000000001826747 -0.010805848488426

                       180                181                182                183                184                185                186                187                188     
                      (180)              (181)              (182)              (183)              (184)              (185)              (186)              (187)              (188)    

    0  (  0)  0.000000574205029  0.023156447283044  0.017865572766260 -0.000000098024875 -0.069943848774381  0.000000027822886 -0.000000488775217  0.091023336749074 -0.211136845470558
    1  (  1)  0.269357747272075 -0.000000050703772 -0.000000038738314 -0.046366002602852  0.000000149050714  0.012712728383039 -0.228293572754604 -0.000000195618540  0.000000444521260
    2  (  2) -0.000000000155862  0.002503972047952  0.012670833731688  0.000000000218772 -0.025870688386107  0.000000000312690 -0.000000000249595  0.047960819695188 -0.050395356512172
    3  (  3) -0.111881276739734  0.000000000416205  0.000000000135924  0.017172766464619  0.000000000037612 -0.030427715174326  0.030394990607056  0.000000000314723  0.000000001958420
    4  (  4)  0.000000000952329 -0.006644024307087  0.050812683609850 -0.000000000257482 -0.026093413032301  0.000000001114934 -0.000000002973131  0.061901494327915  0.130235577261278
    5  (  5) -0.020007168987401  0.000000003201939  0.000000000157660  0.011315576462415  0.000000000849184  0.004681298669627  0.168846435603048  0.000000004916513  0.000000004260325
    6  (  6)  0.000000001018013  0.026190595297631 -0.014344519665045 -0.000000001144240  0.011165900558058 -0.000000002734720 -0.000000020518988  0.019100142376486  0.036385337414756
    7  (  7)  0.021267445925613  0.000000001586298 -0.000000001304717 -0.001206377841991  0.000000000649165  0.052343584981261  0.077754283462107  0.000000000358539 -0.000000000947015
    8  (  8)  0.000000001374562 -0.023850202598069 -0.023834139603516 -0.000000000156357 -0.028962412605037 -0.000000001230528 -0.000000001411157 -0.029015731325514  0.109150725784901

                       189                190                191                192                193                194                195                196                197     
                      (189)              (190)              (191)              (192)              (193)              (194)              (195)              (196)              (197)    

    0  (  0)  0.000000280621141  0.146879487568371 -0.200881392859451 -0.000000168183321 -0.000000828583877 -0.637258583271075 -0.000000161005759  1.253225015061319 -1.124094206938534
    1  (  1)  0.136824367771826 -0.000000310646239  0.000000429451218 -0.076719440784431 -0.386337280945337  0.000001358750981 -0.075224385362591 -0.000002675455089  0.000002390815362
    2  (  2) -0.000000002531715  0.035112737354154 -0.055108698749445 -0.000000001185704 -0.000000001588052 -0.204291128123422 -0.000000000195853  0.404308945080798 -0.364154955837258
    3  (  3) -0.048736995073421 -0.000000000392234 -0.000000000596890  0.025086291146252  0.111140457479141 -0.000000000310129  0.016634621293175  0.000000001736637  0.000000001209646
    4  (  4)  0.000000006811994 -0.001823792369445  0.045321446605851  0.000000001504512  0.000000002402349  0.090346565273680  0.000000000294662 -0.051280764483845  0.075512456552552
    5  (  5)  0.011313696667689 -0.000000009347693  0.000000005401960  0.009314069718223  0.031458057407995  0.000000011847036  0.003722455838425 -0.000000011638906  0.000000010933495
    6  (  6)  0.000000000608204 -0.076082198134886  0.044587901849829 -0.000000002075065 -0.000000008104690  0.085671120179831 -0.000000001029891 -0.113075705267548  0.091169001519936
    7  (  7)  0.007048553099711 -0.000000003455118  0.000000000882430  0.044317649853032  0.130583181063530  0.000000001653301  0.020531316653089 -0.000000002484723  0.000000003154635
    8  (  8)  0.000000008004933 -0.011294973651109  0.015796865760708  0.000000000681482 -0.000000003743534 -0.047110775953964 -0.000000002227459 -0.109563610471255  0.063692935098320

                       198                199                200                201                202                203                204                205                206     
                      (198)              (199)              (200)              (201)              (202)              (203)              (204)              (205)              (206)    

    0  (  0) -0.865864195686818  0.000000524664872  0.000000746482893 -0.000003214143663 -0.996421900476237  0.000001272258974 -0.000001963719583 -0.041148205443187  0.000000252402159
    1  (  1)  0.000001862339107  0.211970166034919  0.346847370569617 -1.483146251458640  0.000002215210818  0.589621986305187 -0.920879417182699  0.000000106974072  0.119702252591151
    2  (  2) -0.278582052613076  0.000000023238625  0.000000002141926 -0.000000016635861 -0.324107503901598  0.000000004739802  0.000000000143347 -0.005524290035836 -0.000000000688548
    3  (  3) -0.000000006124540 -0.071341107658109 -0.126851592756086  0.478321350388371 -0.000000029758158 -0.193677269348548  0.305084117068245 -0.000000006532137 -0.056481566019279
    4  (  4)  0.073525416733699 -0.000000005757500 -0.000000000458225  0.000000002290547  0.060585018231139  0.000000002825002 -0.000000000840809 -0.026177000068817 -0.000000001746355
    5  (  5)  0.000000008130929 -0.045758077881509 -0.022146391609484  0.131333568072023  0.000000001277691 -0.133561577474467  0.061905153231700  0.000000002450469  0.059189502473075
    6  (  6)  0.101608793323677 -0.000000003587911  0.000000003670923 -0.000000015255848  0.079449080945509  0.000000012926292 -0.000000007876525  0.043002687870667 -0.000000005294601
    7  (  7)  0.000000002449069 -0.010704339825627 -0.045364059009824  0.151629876337338 -0.000000007515276 -0.029128615289761  0.061300867206638  0.000000000833998 -0.003325466511906
    8  (  8)  0.024128279506082 -0.000000000724371 -0.000000000397219 -0.000000013517561 -0.018062324487530  0.000000002137828 -0.000000005610092 -0.011840322594810 -0.000000001543614

                       207                208                209                210                211                212                213                214                215     
                      (207)              (208)              (209)              (210)              (211)              (212)              (213)              (214)              (215)    

    0  (  0) -0.198303210227298 -0.545576715546373  0.000000001578316  0.000001243624159  0.223344624531445  0.000000527210537  0.058665888911355  0.000000177555249  0.227038430821942
    1  (  1)  0.000000424188901  0.000001158630024 -0.002906645145227  0.583179146037333 -0.000000482967308  0.245912116126940 -0.000000145414709  0.087920650143681 -0.000000477181706
    2  (  2) -0.065785753156505 -0.176568697445608  0.000000002740802 -0.000000000069134  0.074478226268831  0.000000000826529  0.016956269875759 -0.000000003604646  0.092339405989406
    3  (  3) -0.000000000186445  0.000000001451319  0.010587248725711 -0.201268206554722  0.000000002236701 -0.081950032937346  0.000000007223928 -0.032319550144397 -0.000000003095380
    4  (  4)  0.003243365239804 -0.045656017356616 -0.000000000761616  0.000000000324719 -0.026700899685396 -0.000000003102288 -0.025049890918454  0.000000001928732 -0.012937248781623
    5  (  5)  0.000000001372174  0.000000004070261  0.024609426523175 -0.012018178556408  0.000000000619350 -0.012490544022256  0.000000001040858 -0.031011008056599  0.000000006672802
    6  (  6)  0.021492115133178  0.037878292032892 -0.000000004366963  0.000000000682659  0.004700424539273  0.000000003670466  0.001843151947324  0.000000000311566  0.068606082229480
    7  (  7)  0.000000000570114  0.000000001419974  0.002130931088536 -0.000393970131934  0.000000000769761 -0.017416468550261  0.000000001904864  0.040432300186425  0.000000004636314
    8  (  8) -0.004898862478437 -0.044091528069785  0.000000002813817  0.000000002907231 -0.054721063960146 -0.000000003650364 -0.051699964065765  0.000000000660996 -0.002591297307672

                       216                217                218                219                220                221                222                223                224     
                      (216)              (217)              (218)              (219)              (220)              (221)              (222)              (223)              (224)    

    0  (  0)  0.000753721067716  0.000000084794109 -0.273165225278550 -0.000000547753897 -0.027890207151018 -0.096889406745925 -0.000002044624765  0.539732438970287  0.299006292860505
    1  (  1)  0.000000001399917  0.051844673809676  0.000000577925459 -0.259111516037599  0.000000050444105  0.000000199768344 -0.958349632960241 -0.000001160718033 -0.000000615204008
    2  (  2)  0.014000432213430 -0.000000009946211 -0.107488475649666  0.000000001722863 -0.007458081370342 -0.012886525911797 -0.000000000485720  0.164823468886062  0.093091925566048
    3  (  3) -0.000000001000278 -0.034908590187108  0.000000002835670  0.078826618451285  0.000000002953562  0.000000002063856  0.335471871552110  0.000000003528979 -0.000000007684291
    4  (  4) -0.012273172583116  0.000000003605609  0.035562247506723 -0.000000002736235  0.051324641798796  0.027407989690832  0.000000000469374  0.066526589046950  0.036772678081750
    5  (  5)  0.000000006820277  0.016181093341971 -0.000000009700358  0.046978831070431  0.000000004033581  0.000000013209586  0.000115042490637 -0.000000007697202 -0.000000005500303
    6  (  6)  0.063015203851425 -0.000000011313619 -0.077040193299749 -0.000000005066872  0.000676871269451  0.103157083124395 -0.000000002356033 -0.090456113177681 -0.017926851233645
    7  (  7)  0.000000001640379  0.062198806747118 -0.000000008818001  0.008710512217353  0.000000000112229  0.000000004875055  0.055533644990695 -0.000000005759832 -0.000000000388254
    8  (  8)  0.001390141111373 -0.000000001671509 -0.023322762238979  0.000000002821978 -0.115247718843319 -0.064334696900964 -0.000000002430789  0.053273086475509 -0.040047399760866

                       225                226                227                228                229                230                231                232                233     
                      (225)              (226)              (227)              (228)              (229)              (230)              (231)              (232)              (233)    

    0  (  0) -0.000000308866460  0.000000973406713  0.000000882858057 -0.000686388477283 -0.000000886520521  0.081852713004393  0.201172974240285 -0.000000067793190  0.000000981851275
    1  (  1) -0.147501550370376  0.461546437129917  0.413215303717480 -0.000000000166645 -0.416443991557358 -0.000000174131845 -0.000000426483039 -0.031320943390800  0.463305320870462
    2  (  2)  0.000000001653712 -0.000000003768698  0.000000000765644  0.039826093559728  0.000000000237952  0.006434954786798  0.077558596850723 -0.000000000101906 -0.000000001837061
[...]
    5  (  5)  0.020260063952240 -0.000000004367972  0.000000003362815  0.066216253321750  0.089357700642140  0.035511965947684  0.000000002396107 -0.000000002340150  0.000581270303755
    6  (  6)  0.000000006674468 -0.022491621332575  0.025787699197332 -0.000000007792149 -0.000000010932376 -0.000000005854590  0.006903514485540 -0.023154145990441 -0.000000000438193
    7  (  7) -0.117747210817547  0.000000000459844  0.000000002591930  0.022201599767543  0.079670606781420  0.077478592771997 -0.000000000561236 -0.000000001377564 -0.006168670888776
    8  (  8) -0.000000024807518  0.099538246267712  0.077364083329505  0.000000013424095 -0.000000012760529 -0.000000017447276 -0.008752292845861  0.004524081013233  0.000000010449222

                       162                163                164                165                166                167                168                169                170     
                      (162)              (163)              (164)              (165)              (166)              (167)              (168)              (169)              (170)    

    0  (  0) -0.019469867331212 -0.000000004174610 -0.084431538245890  0.000000109857011 -0.064401616674292  0.000000108051470  0.225451578098868  0.000000524526163  0.014073570609027
    1  (  1)  0.000000041369276 -0.002187553732048  0.000000179504507  0.050921578955766  0.000000139664458  0.049852715451821 -0.000000478005042  0.246273393743913 -0.000000074710840
    2  (  2) -0.009501401033526  0.000000000202371 -0.040095360724169  0.000000001170678 -0.034642512642426  0.000000000581708  0.079532703167797 -0.000000003292178 -0.011252246760098
    3  (  3)  0.000000000206078 -0.010405844903758  0.000000000268989 -0.029466948162624 -0.000000001239392 -0.004919510071570 -0.000000001005920 -0.071658376943256  0.000000013258633
    4  (  4) -0.010004698631006  0.000000000053281 -0.027852268217176 -0.000000002733046  0.010619150242220 -0.000000000942522  0.030806664331779 -0.000000005846737 -0.033377647586148
    5  (  5) -0.000000002135822 -0.000653643081158 -0.000000002198207  0.036940089006817  0.000000003963961  0.004239883716526 -0.000000006151599 -0.027017840512055  0.000000005900924
    6  (  6) -0.015805337937523 -0.000000001022850 -0.009515910957113 -0.000000002742845  0.027429213374126  0.000000000234486 -0.055687606367458  0.000000007635876  0.023710647444802
    7  (  7) -0.000000000703195  0.012804761855131 -0.000000000067193 -0.032432874719693  0.000000000901258 -0.022601971222412 -0.000000001653189 -0.008590638295937  0.000000003980678
    8  (  8) -0.001106740472253  0.000000002624883  0.026249652626138  0.000000005247219 -0.046038864769739  0.000000008926045 -0.009616280026301  0.000000008909586 -0.001172000642163

                       171                172                173                174                175                176                177                178                179     
                      (171)              (172)              (173)              (174)              (175)              (176)              (177)              (178)              (179)    

    0  (  0)  0.000000127162392  0.045406200596907  0.208893588331062  0.000000346630596  0.000000019372324  0.000000471720603  0.153348144426319  0.000000162636072 -0.018831294028089
    1  (  1)  0.058378225265127 -0.000000097700290 -0.000000444943268  0.163486032865488  0.008994654777089  0.220245734315210 -0.000000332534774  0.073157530220424  0.000000038549614
    2  (  2)  0.000000001040431  0.014567447988641  0.072772292671351 -0.000000000752815  0.000000000131121  0.000000000957924  0.057439200655261  0.000000002609734  0.003814652107094
    3  (  3)  0.005846261771226  0.000000000190608 -0.000000000151890 -0.072031305958594  0.002434846736440 -0.111899151746229  0.000000003367022 -0.049137113615072  0.000000000763305
    4  (  4)  0.000000000272474 -0.007186019421790 -0.014231260018901 -0.000000000014661 -0.000000000379166  0.000000000398159  0.073369582515500  0.000000003572957  0.029961518581739
    5  (  5) -0.008621944419186  0.000000002644418  0.000000001593094 -0.018420582127360  0.006673873775049  0.048447819321468 -0.000000000679429  0.005759164114430  0.000000002140459
    6  (  6)  0.000000001492857  0.028221198416752  0.017840159204139  0.000000004620695 -0.000000001440135 -0.000000007092071 -0.002565896979717 -0.000000002030123  0.013309755195734
    7  (  7) -0.026146657589989  0.000000001865813  0.000000001729084 -0.046622429054874  0.009037055763937  0.046962485035124 -0.000000001340060  0.024165449946488 -0.000000000783508
    8  (  8)  0.000000003783387  0.015465779583194 -0.023781939784184 -0.000000009143995  0.000000005452840  0.000000002288457  0.029000863163571  0.000000000001240  0.007046844755130

                       180                181                182                183                184                185                186                187                188     
                      (180)              (181)              (182)              (183)              (184)              (185)              (186)              (187)              (188)    

    0  (  0)  0.000000472591977  0.218146873632814  0.176540795682921  0.000000038550546 -0.282721406494112  0.000000355447798  0.000000225559759 -0.100391415552618 -0.015100225903402
    1  (  1)  0.220708370897611 -0.000000466299772 -0.000000377252223  0.016673769694526  0.000000602739999  0.167178114253632  0.106233753969582  0.000000212690325  0.000000028448514
    2  (  2)  0.000000000969300  0.095732032138590  0.080490340414780  0.000000000934470 -0.088218962145969 -0.000000000132327 -0.000000000328436 -0.007904605029473 -0.014253435581516
    3  (  3) -0.108826835103461  0.000000000668696  0.000000000459019  0.035232825956577 -0.000000000105876 -0.095732628736259 -0.023230452626386  0.000000000428642  0.000000002046154
    4  (  4)  0.000000000316165  0.039562194110104  0.030514093300006  0.000000000329892  0.000827477780667  0.000000000123861 -0.000000005023550  0.097991882476136 -0.063759850635983
    5  (  5)  0.020429762245406 -0.000000000744845 -0.000000002515291 -0.021781422173938  0.000000006464011  0.036718312402732  0.027956989149477  0.000000003901900 -0.000000006868135
    6  (  6) -0.000000003832029 -0.018751276147889 -0.032539742428247  0.000000001354864  0.052481310532529 -0.000000005185366  0.000000002716096  0.021393603348123 -0.021721659535773
    7  (  7)  0.032986610212915 -0.000000001656349 -0.000000002614327 -0.013295996059914  0.000000000848636  0.037926151691603 -0.116210031885470 -0.000000001100352 -0.000000000528383
    8  (  8) -0.000000000142776  0.020436986179506  0.032814915396455  0.000000013508222 -0.003564057434534 -0.000000000292672  0.000000005699855  0.046084338115067  0.087650565738288

                       189                190                191                192                193                194                195                196                197     
                      (189)              (190)              (191)              (192)              (193)              (194)              (195)              (196)              (197)    

    0  (  0)  0.000000100571169 -0.079086642310134 -0.081934694674054 -0.000000564392742 -0.000001629893834 -0.433435911141946  0.000000134198727 -0.357701866366638  0.284089034964290
    1  (  1)  0.047758490552200  0.000000167796089  0.000000176697015 -0.264251959544024 -0.763428391901339  0.000000931293450  0.063143644404392  0.000000761215953 -0.000000605159566
    2  (  2) -0.000000000446417 -0.049766479330790 -0.024549033118530 -0.000000000001760  0.000000000004913 -0.129233149017803 -0.000000000150161 -0.120870154472456  0.094189136423858
    3  (  3) -0.028866432794925  0.000000000201031 -0.000000000634104  0.076331285802026  0.234219251153315 -0.000000002812322 -0.024305671414180  0.000000000279216  0.000000000223995
    4  (  4) -0.000000004392696 -0.004371618064836  0.033279508336819 -0.000000000242054 -0.000000000517695  0.099532176499632 -0.000000000101781  0.052400726006573 -0.007326040476437
    5  (  5)  0.030979103750925 -0.000000007468828 -0.000000000798966  0.064692300174241  0.149085477484998  0.000000007157865  0.009092922269473 -0.000000000420585 -0.000000004602498
    6  (  6) -0.000000006252446 -0.054722819767315 -0.000081537788543 -0.000000009305271 -0.000000017970326  0.070152750991151 -0.000000001431931 -0.003408105882666 -0.040171387143611
    7  (  7)  0.029039368825893  0.000000000039058 -0.000000000516748  0.065302894710296  0.123643540603450  0.000000001046787  0.005579627710364 -0.000000000700178 -0.000000001524901
    8  (  8)  0.000000024247274 -0.021094930855601  0.030802348864411 -0.000000002171502 -0.000000027330198  0.060597126269652  0.000000002738435  0.017463386763803  0.004851025886350

                       198                199                200                201                202                203                204                205                206     
                      (198)              (199)              (200)              (201)              (202)              (203)              (204)              (205)              (206)    

    0  (  0) -0.038660100892619 -0.000000523708472 -0.000000471734848  0.000001319420303  0.327767850356760  0.000000175559657  0.000000093875127 -0.009707240273958 -0.000001011986298
    1  (  1)  0.000000064181144 -0.246443628783272 -0.219528378381264  0.610509688458660 -0.000000737198527  0.083345838211706  0.043837817577930  0.000000022989410 -0.472982248138716
    2  (  2) -0.018457338776766  0.000000001365080 -0.000000001113778  0.000000005304865  0.101159734668094 -0.000000000969723  0.000000000056707 -0.003356003472141 -0.000000000690528
    3  (  3)  0.000000006906787  0.091515301324710  0.071982325325725 -0.203130621045228  0.000000013192695 -0.037389734735860 -0.020987625724779 -0.000000000669501  0.158782184546604
    4  (  4)  0.007434638955577 -0.000000000351284  0.000000000908978 -0.000000003521291 -0.032061924257261  0.000000001532787  0.000000001378721 -0.006354192805197 -0.000000002203229
    5  (  5) -0.000000002232917  0.011602590991674  0.021279392761128 -0.037227049017717 -0.000000004213247 -0.015463928666045 -0.015327699638913  0.000000000270221  0.058765033269436
    6  (  6) -0.016964479663523  0.000000001251014 -0.000000003706653  0.000000004437859 -0.051437024492497  0.000000002154449 -0.000000000413866  0.003398856811985 -0.000000003066158
    7  (  7)  0.000000001436884  0.021268698799613  0.043969227657196 -0.089442180291894  0.000000004591591  0.006003725234719  0.039513092520974 -0.000000000227396 -0.014117114221004
    8  (  8)  0.033632614592966 -0.000000011882365 -0.000000003761306  0.000000018826626  0.001724364615437 -0.000000011129800 -0.000000003956239 -0.008129928455217 -0.000000016755623

                       207                208                209                210                211                212                213                214                215     
                      (207)              (208)              (209)              (210)              (211)              (212)              (213)              (214)              (215)    

    0  (  0) -0.557017517883568 -0.214081509500183 -0.000000328650596  0.000001182151703  0.398762818446166  0.000000007331756  0.445931518348016  0.000000430765440 -0.021428594913727
    1  (  1)  0.000001191476647  0.000000454055177 -0.156455607371108  0.552228541560672 -0.000000856794064 -0.015176007550493 -0.000000947157410  0.203664147290171  0.000000054866861
    2  (  2) -0.183460849011044 -0.069931534044602  0.000000001708934  0.000000001682719  0.129709294089373  0.000000012279158  0.138981698921060 -0.000000001131198 -0.004869485509300
    3  (  3) -0.000000001642670  0.000000000646104  0.057390811731887 -0.185353596224667  0.000000003304344 -0.003430270181648 -0.000000000693595 -0.053682764301959 -0.000000002946767
    4  (  4)  0.009699284002662  0.062330810989549 -0.000000000414973 -0.000000001751034 -0.007505922660454 -0.000000001651061 -0.025366443104794 -0.000000002164546  0.008557023892932
    5  (  5)  0.000000004339845  0.000000004936334  0.008908974098182 -0.000830350878563 -0.000000002255423 -0.002733927666762 -0.000000005171287  0.015481421881923  0.000000001314123
    6  (  6)  0.045764558891565  0.030616718209633  0.000000000024340  0.000000000931628 -0.021929139476724 -0.000000000473465 -0.040734122484155 -0.000000002932777  0.004647098775264
    7  (  7)  0.000000000628883  0.000000000974220 -0.012312891284121 -0.042465640931544  0.000000001160741 -0.028672392572924  0.000000002316965  0.007520565494695  0.000000000890874
    8  (  8)  0.018940589486224 -0.071739657959824 -0.000000006610304  0.000000022029809 -0.014000074766556 -0.000000017939603 -0.029456634518731  0.000000025118010  0.024562504585401

                       216                217                218                219                220                221                222                223                224     
                      (216)              (217)              (218)              (219)              (220)              (221)              (222)              (223)              (224)    

    0  (  0) -0.074880308441976 -0.000000299714662  0.078994887310951 -0.000000412525669  0.147478156895218 -0.271768026705614  0.000000498445641 -0.298376307667540  0.008268104552299
    1  (  1)  0.000000156131135 -0.143845238527175 -0.000000155932361 -0.190151210041014 -0.000000321449397  0.000000581171152  0.231011818396508  0.000000639748693 -0.000000020396893
    2  (  2) -0.018439177577549  0.000000002987839  0.029558769049232 -0.000000002675574  0.055548937217853 -0.076917310046535  0.000000001884266 -0.097780441007916  0.017776634086708
    3  (  3)  0.000000001469680  0.018528509856199 -0.000000001685195  0.048774541280883  0.000000001966721 -0.000000001105482 -0.086363920822127 -0.000000000991838  0.000000001026377
    4  (  4) -0.009739912080529  0.000000000119579  0.015935685643897 -0.000000001470552  0.050477465187514  0.019584339009042  0.000000002750224 -0.012615292310206 -0.036652734678863
    5  (  5)  0.000000002754828  0.069796391403891 -0.000000005606151  0.022542547702811 -0.000000000627219  0.000000005827984 -0.045591738299713 -0.000000004846809  0.000000010429183
    6  (  6)  0.024519581570832 -0.000000007827515 -0.002693495362924 -0.000000003837519 -0.016532307067596  0.051474537098935  0.000000001839189 -0.017779243222226  0.082935828478541
    7  (  7) -0.000000000046436  0.033933484853122 -0.000000003092238  0.071834933617367  0.000000001988359  0.000000001094139  0.058041286488529  0.000000000533657  0.000000002267999
    8  (  8)  0.020472556777104 -0.000000016083065 -0.019665109472963 -0.000000004406748  0.032226597868811  0.060496153402440 -0.000000000307181  0.074682179698438  0.050863353695667

                       225                226                227                228                229                230                231                232                233     
                      (225)              (226)              (227)              (228)              (229)              (230)              (231)              (232)              (233)    

    0  (  0) -0.000000057804001  0.000000049122242 -0.000000164274642  0.337271349882401 -0.000000175727847  0.506895188490680  0.313555621024664 -0.000000234373802  0.000001255067159
    1  (  1) -0.026669446478912  0.022290048328706 -0.076831571949631 -0.000000717919493 -0.082462333378996 -0.000001079688217 -0.000000667981166 -0.109376411889228  0.589293405959760
    2  (  2) -0.000000000122147  0.000000000145892 -0.000000000245431  0.090282965834154  0.000000000001824  0.171500381812472  0.105065852775305 -0.000000000517928 -0.000000000456721
    3  (  3)  0.005580895514557 -0.003940321471632  0.035471744156242  0.000000000049864  0.033594645660668 -0.000000000016750  0.000000000071019  0.032475858963205 -0.214391725638213
    4  (  4) -0.000000004325168  0.000000001903901  0.000000000120274 -0.024124224692115 -0.000000000277467 -0.056131717956172  0.004916689028536  0.000000001993456 -0.000000003226308
    5  (  5)  0.073887077657444 -0.015933862431904 -0.004907787376525 -0.000000013814109  0.000892735676694  0.000000003453083 -0.000000001467357 -0.033515975866034  0.032894906892908
    6  (  6) -0.000000004803180 -0.000000002535187 -0.000000002099126 -0.103347192169776 -0.000000002458971  0.034976769530977 -0.001638577514481  0.000000002402718 -0.000000003880526
    7  (  7) -0.061746652752112  0.036168930706746  0.018196304366793 -0.000000001863220  0.026451834807298  0.000000002227322  0.000000001127915  0.027299493016647  0.009815673178016
    8  (  8)  0.000000002457085  0.000000005457865  0.000000011052315 -0.003186017242240  0.000000012045804 -0.002982880440342  0.110112819249719 -0.000000008309950  0.000000003870561

                       234                235                236                237                238                239                240                241                242     
                      (234)              (235)              (236)              (237)              (238)              (239)              (240)              (241)              (242)    

    0  (  0)  0.000000256362074  0.025462510544657  0.407181111850511  0.000000010484000 -0.372678393043002  0.000001472579845  0.624941519578773 -0.000000154748697 -0.043142418996909
    1  (  1)  0.115278306429657 -0.000000036374053 -0.000000871905448  0.004454545475895  0.000000793832987  0.682553747748916 -0.000001351331360 -0.072643044455064  0.000000091954813
    2  (  2)  0.000000003017412  0.007777044084453  0.097397750358707  0.000000000578223 -0.126774167344816  0.000000004667204  0.187502714931248  0.000000000080212 -0.020272424010597
    3  (  3) -0.028701138053546 -0.000000006171282  0.000000001575909  0.015392492021509  0.000000000234347 -0.194731328838411  0.000000005956894  0.040000909554031  0.000000000225913
    4  (  4) -0.000000008158861  0.092858281993941  0.017304314952456 -0.000000004212497 -0.078931978141171 -0.000000001595128 -0.087390280925711 -0.000000001264112 -0.080780760197895
    5  (  5)  0.056267038309436  0.000000007327939 -0.000000022302398  0.055363642769209 -0.000000004270550 -0.117644535138474 -0.000000002171621 -0.027092247430784 -0.000000004807350
    6  (  6) -0.000000001849686  0.015223434888613 -0.164979339950122 -0.000000009081012 -0.027895882254553  0.000000012091352 -0.050687298164328  0.000000007361275 -0.031725115273942
    7  (  7) -0.158329244468145 -0.000000003610232 -0.000000000083370  0.030459432997612 -0.000000001957292 -0.088957676817100  0.000000000912309 -0.095980211089247 -0.000000001322248
    8  (  8)  0.000000005807044 -0.126495764784050  0.029054263297296  0.000000037425688  0.003559140897201  0.000000025061189 -0.062555881924654  0.000000001509436  0.015823484434792

	Computing L_X-Perturbed Wave Function (0.000 E_h).
	Iter   Pseudopolarizability       RMS 
	----   --------------------   -----------
	   0         6.839008170699
	   1         8.386209993744    3.642e-01
	   2        10.108932313037    2.223e-01
	   3        10.146403676046    5.008e-02
	   4        10.174589752033    2.798e-02
	   5        10.190591610478    7.908e-03
	   6        10.190224171985    3.977e-03
	   7        10.190107170876    1.847e-03
	   8        10.190632091106    8.274e-04
	   9        10.190386144256    3.665e-04
	  10        10.190508496983    1.474e-04
	  11        10.190534957359    4.421e-05
	  12        10.190572990541    1.740e-05
	  13        10.190585668077    6.001e-06
	  14        10.190589939833    2.750e-06
	  15        10.190590728678    1.236e-06
	  16        10.190590751089    5.702e-07
	  17        10.190590931180    2.473e-07
	  18        10.190591130045    1.409e-07
